Program Version,EnergyPlus, Version 25.1.0-68a4a7c774, YMD=2025.10.28 18:22
1,5,Environment Title[],Latitude[deg],Longitude[deg],Time Zone[],Elevation[m]
2,8,Day of Simulation[],Month[],Day of Month[],DST Indicator[1=yes 0=no],Hour[],StartMinute[],EndMinute[],DayType
3,5,Cumulative Day of Simulation[],Month[],Day of Month[],DST Indicator[1=yes 0=no],DayType  ! When Daily Meters Requested
4,2,Cumulative Days of Simulation[],Month[]  ! When Monthly Meters Requested
5,1,Cumulative Days of Simulation[] ! When Run Period Meters Requested
6,1,Calendar Year of Simulation[] ! When Annual Meters Requested
12,1,Electricity:Facility [J] !Hourly
1113,1,Fans:Electricity [J] !Hourly
1212,1,Cooling:Electricity [J] !Hourly
1312,1,Heating:Electricity [J] !Hourly
60,1,InteriorLights:Electricity [J] !Hourly
281,1,InteriorEquipment:Electricity [J] !Hourly
1262,1,NaturalGas:Facility [J] !Hourly
1286,1,Heating:NaturalGas [J] !Hourly
1530,1,Water Heater:WaterSystems:NaturalGas [J] !Hourly
14,9,Electricity:Facility [J] !Monthly [Value,Min,Day,Hour,Minute,Max,Day,Hour,Minute]
1264,9,NaturalGas:Facility [J] !Monthly [Value,Min,Day,Hour,Minute,Max,Day,Hour,Minute]
1360,9,Water:Facility [m3] !Monthly [Value,Min,Day,Hour,Minute,Max,Day,Hour,Minute]
462,9,EnergyTransfer:Facility [J] !Monthly [Value,Min,Day,Hour,Minute,Max,Day,Hour,Minute]
955,9,ElectricityPurchased:Facility [J] !Monthly [Value,Min,Day,Hour,Minute,Max,Day,Hour,Minute]
1004,9,ElectricitySurplusSold:Facility [J] !Monthly [Value,Min,Day,Hour,Minute,Max,Day,Hour,Minute]
1053,9,ElectricityNet:Facility [J] !Monthly [Value,Min,Day,Hour,Minute,Max,Day,Hour,Minute]
2287,9,Carbon Equivalent:Facility [kg] !Monthly [Value,Min,Day,Hour,Minute,Max,Day,Hour,Minute]
906,9,PlantLoopHeatingDemand:Facility [J] !Monthly [Value,Min,Day,Hour,Minute,Max,Day,Hour,Minute]
1409,9,MainsWater:Facility [m3] !Monthly [Value,Min,Day,Hour,Minute,Max,Day,Hour,Minute]
1965,9,WaterEnvironmentalFactors:Facility [L] !Monthly [Value,Min,Day,Hour,Minute,Max,Day,Hour,Minute]
1615,9,Source:Facility [J] !Monthly [Value,Min,Day,Hour,Minute,Max,Day,Hour,Minute]
1765,9,SO2:Facility [kg] !Monthly [Value,Min,Day,Hour,Minute,Max,Day,Hour,Minute]
1715,9,NOx:Facility [kg] !Monthly [Value,Min,Day,Hour,Minute,Max,Day,Hour,Minute]
1740,9,N2O:Facility [kg] !Monthly [Value,Min,Day,Hour,Minute,Max,Day,Hour,Minute]
1790,9,PM:Facility [kg] !Monthly [Value,Min,Day,Hour,Minute,Max,Day,Hour,Minute]
1840,9,PM2.5:Facility [kg] !Monthly [Value,Min,Day,Hour,Minute,Max,Day,Hour,Minute]
1815,9,PM10:Facility [kg] !Monthly [Value,Min,Day,Hour,Minute,Max,Day,Hour,Minute]
1665,9,CO:Facility [kg] !Monthly [Value,Min,Day,Hour,Minute,Max,Day,Hour,Minute]
1640,9,CO2:Facility [kg] !Monthly [Value,Min,Day,Hour,Minute,Max,Day,Hour,Minute]
1690,9,CH4:Facility [kg] !Monthly [Value,Min,Day,Hour,Minute,Max,Day,Hour,Minute]
1865,9,NH3:Facility [kg] !Monthly [Value,Min,Day,Hour,Minute,Max,Day,Hour,Minute]
1890,9,NMVOC:Facility [kg] !Monthly [Value,Min,Day,Hour,Minute,Max,Day,Hour,Minute]
1915,9,Hg:Facility [kg] !Monthly [Value,Min,Day,Hour,Minute,Max,Day,Hour,Minute]
1940,9,Pb:Facility [kg] !Monthly [Value,Min,Day,Hour,Minute,Max,Day,Hour,Minute]
1990,9,Nuclear High:Facility [kg] !Monthly [Value,Min,Day,Hour,Minute,Max,Day,Hour,Minute]
2015,9,Nuclear Low:Facility [m3] !Monthly [Value,Min,Day,Hour,Minute,Max,Day,Hour,Minute]
End of Data Dictionary
1,ANNUAL,  41.98, -87.92,  -6.00, 201.00
2,1, 1, 1, 0, 1, 0.00,60.00,Holiday
12,59292858.59425454
60,9394050.697200002
281,41608007.89704
1113,0.0
1212,0.0
1262,72000.0
1286,0.0
1312,0.0
1530,72000.0
2,1, 1, 1, 0, 2, 0.00,60.00,Holiday
12,59292858.59425454
60,9394050.697200002
281,41608007.89704
1113,0.0
1212,0.0
1262,1631084.0613433796
1286,0.0
1312,0.0
1530,1631084.0613433796
2,1, 1, 1, 0, 3, 0.00,60.00,Holiday
12,59292858.59425454
60,9394050.697200002
281,41608007.89704
1113,0.0
1212,0.0
1262,72000.0
1286,0.0
1312,0.0
1530,72000.0
2,1, 1, 1, 0, 4, 0.00,60.00,Holiday
12,59292858.59425454
60,9394050.697200002
281,41608007.89704
1113,0.0
1212,0.0
1262,1631044.83184318
1286,0.0
1312,0.0
1530,1631044.83184318
2,1, 1, 1, 0, 5, 0.00,60.00,Holiday
12,59292858.59425454
60,9394050.697200002
281,41608007.89704
1113,0.0
1212,0.0
1262,1631017.9219451451
1286,0.0
1312,0.0
1530,1631017.9219451451
2,1, 1, 1, 0, 6, 0.00,60.00,Holiday
12,59292858.59425454
60,9394050.697200002
281,41608007.89704
1113,0.0
1212,0.0
1262,72000.0
1286,0.0
1312,0.0
1530,72000.0
2,1, 1, 1, 0, 7, 0.00,60.00,Holiday
12,59292858.59425454
60,9394050.697200002
281,41608007.89704
1113,0.0
1212,0.0
1262,1631030.86192308
1286,0.0
1312,0.0
1530,1631030.86192308
2,1, 1, 1, 0, 8, 0.00,60.00,Holiday
12,53765658.59425454
60,9394050.697200002
281,41608007.89704
1113,0.0
1212,0.0
1262,1631001.9957434756
1286,0.0
1312,0.0
1530,1631001.9957434756
2,1, 1, 1, 0, 9, 0.00,60.00,Holiday
12,51002058.59425454
60,9394050.697200002
281,41608007.89704
1113,0.0
1212,0.0
1262,72000.0
1286,0.0
1312,0.0
1530,72000.0
2,1, 1, 1, 0,10, 0.00,60.00,Holiday
12,51002058.59425454
60,9394050.697200002
281,41608007.89704
1113,0.0
1212,0.0
1262,1631096.8712055262
1286,0.0
1312,0.0
1530,1631096.8712055262
2,1, 1, 1, 0,11, 0.00,60.00,Holiday
12,51002058.59425454
60,9394050.697200002
281,41608007.89704
1113,0.0
1212,0.0
1262,1631101.7998689197
1286,0.0
1312,0.0
1530,1631101.7998689197
2,1, 1, 1, 0,12, 0.00,60.00,Holiday
12,51002058.59425454
60,9394050.697200002
281,41608007.89704
1113,0.0
1212,0.0
1262,72000.0
1286,0.0
1312,0.0
1530,72000.0
2,1, 1, 1, 0,13, 0.00,60.00,Holiday
12,51002058.59425454
60,9394050.697200002
281,41608007.89704
1113,0.0
1212,0.0
1262,1631069.4169715513
1286,0.0
1312,0.0
1530,1631069.4169715513
2,1, 1, 1, 0,14, 0.00,60.00,Holiday
12,51002058.59425454
60,9394050.697200002
281,41608007.89704
1113,0.0
1212,0.0
1262,1631130.2131402455
1286,0.0
1312,0.0
1530,1631130.2131402455
2,1, 1, 1, 0,15, 0.00,60.00,Holiday
12,51002058.59425454
60,9394050.697200002
281,41608007.89704
1113,0.0
1212,0.0
1262,72000.0
1286,0.0
1312,0.0
1530,72000.0
2,1, 1, 1, 0,16, 0.00,60.00,Holiday
12,51002058.59425454
60,9394050.697200002
281,41608007.89704
1113,0.0
1212,0.0
1262,1631007.796106263
1286,0.0
1312,0.0
1530,1631007.796106263
2,1, 1, 1, 0,17, 0.00,60.00,Holiday
12,56529258.59425454
60,9394050.697200002
281,41608007.89704
1113,0.0
1212,0.0
1262,1631092.1268897823
1286,0.0
1312,0.0
1530,1631092.1268897823
2,1, 1, 1, 0,18, 0.00,60.00,Holiday
12,59292858.59425454
60,9394050.697200002
281,41608007.89704
1113,0.0
1212,0.0
1262,72000.0
1286,0.0
1312,0.0
1530,72000.0
2,1, 1, 1, 0,19, 0.00,60.00,Holiday
12,59292858.59425454
60,9394050.697200002
281,41608007.89704
1113,0.0
1212,0.0
1262,1631055.3719854685
1286,0.0
1312,0.0
1530,1631055.3719854685
2,1, 1, 1, 0,20, 0.00,60.00,Holiday
12,59292858.59425454
60,9394050.697200002
281,41608007.89704
1113,0.0
1212,0.0
1262,1631028.6377857488
1286,0.0
1312,0.0
1530,1631028.6377857488
2,1, 1, 1, 0,21, 0.00,60.00,Holiday
12,59292858.59425454
60,9394050.697200002
281,41608007.89704
1113,0.0
1212,0.0
1262,72000.0
1286,0.0
1312,0.0
1530,72000.0
2,1, 1, 1, 0,22, 0.00,60.00,Holiday
12,59292858.59425454
60,9394050.697200002
281,41608007.89704
1113,0.0
1212,0.0
1262,1631030.9771789259
1286,0.0
1312,0.0
1530,1631030.9771789259
2,1, 1, 1, 0,23, 0.00,60.00,Holiday
12,59292858.59425454
60,9394050.697200002
281,41608007.89704
1113,0.0
1212,0.0
1262,1631012.5070630459
1286,0.0
1312,0.0
1530,1631012.5070630459
2,1, 1, 1, 0,24, 0.00,60.00,Holiday
12,59292858.59425454
60,9394050.697200002
281,41608007.89704
1113,0.0
1212,0.0
1262,72000.0
1286,0.0
1312,0.0
1530,72000.0
2,2, 1, 2, 0, 1, 0.00,60.00,Monday
12,73162194.55993454
60,9394050.697200002
281,55477343.86272
1113,0.0
1212,0.0
1262,1631099.5283406682
1286,0.0
1312,0.0
1530,1631099.5283406682
2,2, 1, 2, 0, 2, 0.00,60.00,Monday
12,73162194.55993454
60,9394050.697200002
281,55477343.86272
1113,0.0
1212,0.0
1262,1631092.0177235294
1286,0.0
1312,0.0
1530,1631092.0177235294
2,2, 1, 2, 0, 3, 0.00,60.00,Monday
12,73162194.55993454
60,9394050.697200002
281,55477343.86272
1113,0.0
1212,0.0
1262,72000.0
1286,0.0
1312,0.0
1530,72000.0
2,2, 1, 2, 0, 4, 0.00,60.00,Monday
12,73162194.55993454
60,9394050.697200002
281,55477343.86272
1113,0.0
1212,0.0
1262,1631084.45237911
1286,0.0
1312,0.0
1530,1631084.45237911
2,2, 1, 2, 0, 5, 0.00,60.00,Monday
12,73162194.55993454
60,9394050.697200002
281,55477343.86272
1113,0.0
1212,0.0
1262,1631076.8200953235
1286,0.0
1312,0.0
1530,1631076.8200953235
2,2, 1, 2, 0, 6, 0.00,60.00,Monday
12,82556245.25713456
60,18788101.394400004
281,55477343.86272
1113,0.0
1212,0.0
1262,72000.0
1286,0.0
1312,0.0
1530,72000.0
2,2, 1, 2, 0, 7, 0.00,60.00,Monday
12,124838749.59341358
60,18788101.394400004
281,55477343.86272
1113,38080591.252877735
1212,4201913.083401298
1262,1631021.7530138374
1286,0.0
1312,0.0
1530,1631021.7530138374
2,2, 1, 2, 0, 8, 0.00,60.00,Monday
12,155760005.3847589
60,56364304.1832
281,55477343.86272
1113,38080591.252877735
1212,3074166.0859466074
1262,1631112.4933438736
1286,0.0
1312,0.0
1530,1631112.4933438736
2,2, 1, 2, 0, 9, 0.00,60.00,Monday
12,347756941.8688088
60,169092912.5496
281,124824023.69112003
1113,38080591.252877735
1212,15759414.375196546
1262,1631189.7216858272
1286,0.0
1312,0.0
1530,1631189.7216858272
2,2, 1, 2, 0,10, 0.00,60.00,Monday
12,352171944.68008715
60,169092912.5496
281,124824023.69112003
1113,38080591.252877735
1212,20174417.18647495
1262,1631318.3363246792
1286,0.0
1312,0.0
1530,1631318.3363246792
2,2, 1, 2, 0,11, 0.00,60.00,Monday
12,354658273.965704
60,169092912.5496
281,124824023.69112003
1113,38080591.252877735
1212,22660746.472091734
1262,1631340.9393835664
1286,0.0
1312,0.0
1530,1631340.9393835664
2,2, 1, 2, 0,12, 0.00,60.00,Monday
12,356281060.3490959
60,169092912.5496
281,124824023.69112003
1113,38080591.252877735
1212,24283532.85548366
1262,1631462.9817679077
1286,0.0
1312,0.0
1530,1631462.9817679077
2,2, 1, 2, 0,13, 0.00,60.00,Monday
12,341832517.04598546
60,169092912.5496
281,110954687.72544
1113,38080591.252877735
1212,23704325.51805317
1262,3190943.6155193923
1286,0.0
1312,0.0
1530,3190943.6155193923
2,2, 1, 2, 0,14, 0.00,60.00,Monday
12,357202128.7220933
60,169092912.5496
281,124824023.69112003
1113,38080591.252877735
1212,25204601.228480995
1262,1631315.4479852126
1286,0.0
1312,0.0
1530,1631315.4479852126
2,2, 1, 2, 0,15, 0.00,60.00,Monday
12,357165461.94194144
60,169092912.5496
281,124824023.69112003
1113,38080591.252877735
1212,25167934.44832921
1262,1631354.138171546
1286,0.0
1312,0.0
1530,1631354.138171546
2,2, 1, 2, 0,16, 0.00,60.00,Monday
12,357796432.1932311
60,169092912.5496
281,124824023.69112003
1113,38080591.252877735
1212,25798904.699618816
1262,1631309.102026169
1286,0.0
1312,0.0
1530,1631309.102026169
2,2, 1, 2, 0,17, 0.00,60.00,Monday
12,363876909.8774481
60,169092912.5496
281,124824023.69112003
1113,38080591.252877735
1212,26352182.3838358
1262,1631395.808688172
1286,0.0
1312,0.0
1530,1631395.808688172
2,2, 1, 2, 0,18, 0.00,60.00,Monday
12,226244616.0065631
60,93940506.972
281,69346679.82840002
1113,38080591.252877735
1212,16586037.953270813
1262,1631177.4342070904
1286,0.0
1312,0.0
1530,1631177.4342070904
2,2, 1, 2, 0,19, 0.00,60.00,Monday
12,169633840.25956377
60,56364304.1832
281,55477343.86272
1113,38080591.252877735
1212,11420800.960751487
1262,1631216.2097833557
1286,0.0
1312,0.0
1530,1631216.2097833557
2,2, 1, 2, 0,20, 0.00,60.00,Monday
12,168529156.2257545
60,56364304.1832
281,55477343.86272
1113,38080591.252877735
1212,10316116.926942218
1262,1631146.7445898547
1286,0.0
1312,0.0
1530,1631146.7445898547
2,2, 1, 2, 0,21, 0.00,60.00,Monday
12,148429655.99492395
60,37576202.78880001
281,55477343.86272
1113,38080591.252877735
1212,9004718.090511696
1262,1631106.4428435182
1286,0.0
1312,0.0
1530,1631106.4428435182
2,2, 1, 2, 0,22, 0.00,60.00,Monday
12,147949069.18790078
60,37576202.78880001
281,55477343.86272
1113,38080591.252877735
1212,8524131.2834885
1262,72000.0
1286,0.0
1312,0.0
1530,72000.0
2,2, 1, 2, 0,23, 0.00,60.00,Monday
12,87825746.71960478
60,18788101.394400004
281,55477343.86272
1113,4479107.043231411
1212,790394.4192388087
1262,1631110.930679543
1286,0.0
1312,0.0
1530,1631110.930679543
2,2, 1, 2, 0,24, 0.00,60.00,Monday
12,83750389.19541939
60,9394050.697200002
281,55477343.86272
1113,8958214.086462822
1212,1629980.5490220173
1262,1631105.5155141293
1286,0.0
1312,0.0
1530,1631105.5155141293
2,3, 1, 3, 0, 1, 0.00,60.00,Tuesday
12,81574886.83996803
60,9394050.697200002
281,55477343.86272
1113,7166571.269170258
1212,1246121.010863232
1262,72000.0
1286,0.0
1312,0.0
1530,72000.0
2,3, 1, 3, 0, 2, 0.00,60.00,Tuesday
12,79462521.84430192
60,9394050.697200002
281,55477343.86272
1113,5374928.451877694
1212,925398.8324896868
1262,1631078.930712501
1286,0.0
1312,0.0
1530,1631078.930712501
2,3, 1, 3, 0, 3, 0.00,60.00,Tuesday
12,79449834.69167571
60,9394050.697200002
281,55477343.86272
1113,5374928.451877694
1212,912711.6798634757
1262,1631085.3215709187
1286,0.0
1312,0.0
1530,1631085.3215709187
2,3, 1, 3, 0, 4, 0.00,60.00,Tuesday
12,73162194.55993454
60,9394050.697200002
281,55477343.86272
1113,0.0
1212,0.0
1262,72000.0
1286,0.0
1312,0.0
1530,72000.0
2,3, 1, 3, 0, 5, 0.00,60.00,Tuesday
12,73162194.55993454
60,9394050.697200002
281,55477343.86272
1113,0.0
1212,0.0
1262,1631063.8413222402
1286,0.0
1312,0.0
1530,1631063.8413222402
2,3, 1, 3, 0, 6, 0.00,60.00,Tuesday
12,84668309.95471253
60,18788101.394400004
281,55477343.86272
1113,1791642.8172925645
1212,320421.880285401
1262,1631106.072633295
1286,0.0
1312,0.0
1530,1631106.072633295
2,3, 1, 3, 0, 7, 0.00,60.00,Tuesday
12,129754691.43164626
60,18788101.394400004
281,55477343.86272
1113,38080591.252877735
1212,9117854.92163398
1262,72000.0
1286,0.0
1312,0.0
1530,72000.0
2,3, 1, 3, 0, 8, 0.00,60.00,Tuesday
12,158411020.3265566
60,56364304.1832
281,55477343.86272
1113,38080591.252877735
1212,5725181.027744309
1262,1631108.932557894
1286,0.0
1312,0.0
1530,1631108.932557894
2,3, 1, 3, 0, 9, 0.00,60.00,Tuesday
12,349693703.4199467
60,169092912.5496
281,124824023.69112003
1113,38080591.252877735
1212,17696175.92633437
1262,1631271.054521481
1286,0.0
1312,0.0
1530,1631271.054521481
2,3, 1, 3, 0,10, 0.00,60.00,Tuesday
12,353111435.7356177
60,169092912.5496
281,124824023.69112003
1113,38080591.252877735
1212,21113908.242005415
1262,1631370.4871704031
1286,0.0
1312,0.0
1530,1631370.4871704031
2,3, 1, 3, 0,11, 0.00,60.00,Tuesday
12,354677463.22628945
60,169092912.5496
281,124824023.69112003
1113,38080591.252877735
1212,22679935.732677225
1262,3190499.044994811
1286,0.0
1312,0.0
1530,3190499.044994811
2,3, 1, 3, 0,12, 0.00,60.00,Tuesday
12,355723630.42120767
60,169092912.5496
281,124824023.69112003
1113,38080591.252877735
1212,23726102.92759545
1262,1631274.8316167884
1286,0.0
1312,0.0
1530,1631274.8316167884
2,3, 1, 3, 0,13, 0.00,60.00,Tuesday
12,341185836.64011884
60,169092912.5496
281,110954687.72544
1113,38080591.252877735
1212,23057645.112186585
1262,1631452.6333433944
1286,0.0
1312,0.0
1530,1631452.6333433944
2,3, 1, 3, 0,14, 0.00,60.00,Tuesday
12,356911547.0008489
60,169092912.5496
281,124824023.69112003
1113,38080591.252877735
1212,24914019.50723663
1262,1631310.4843681706
1286,0.0
1312,0.0
1530,1631310.4843681706
2,3, 1, 3, 0,15, 0.00,60.00,Tuesday
12,357296480.6558221
60,169092912.5496
281,124824023.69112003
1113,38080591.252877735
1212,25298953.162209846
1262,1631269.9656267946
1286,0.0
1312,0.0
1530,1631269.9656267946
2,3, 1, 3, 0,16, 0.00,60.00,Tuesday
12,357484532.39940107
60,169092912.5496
281,124824023.69112003
1113,38080591.252877735
1212,25487004.905788764
1262,1631303.4527867842
1286,0.0
1312,0.0
1530,1631303.4527867842
2,3, 1, 3, 0,17, 0.00,60.00,Tuesday
12,363036279.802241
60,169092912.5496
281,124824023.69112003
1113,38080591.252877735
1212,25511552.308628775
1262,3190845.9530836465
1286,0.0
1312,0.0
1530,3190845.9530836465
2,3, 1, 3, 0,18, 0.00,60.00,Tuesday
12,225927379.86558855
60,93940506.972
281,69346679.82840002
1113,38080591.252877735
1212,16268801.812296255
1262,1631247.128468232
1286,0.0
1312,0.0
1530,1631247.128468232
2,3, 1, 3, 0,19, 0.00,60.00,Tuesday
12,169240631.65276316
60,56364304.1832
281,55477343.86272
1113,38080591.252877735
1212,11027592.353950845
1262,72000.0
1286,0.0
1312,0.0
1530,72000.0
2,3, 1, 3, 0,20, 0.00,60.00,Tuesday
12,167763608.8875043
60,56364304.1832
281,55477343.86272
1113,38080591.252877735
1212,9550569.588692034
1262,1631192.6196789597
1286,0.0
1312,0.0
1530,1631192.6196789597
2,3, 1, 3, 0,21, 0.00,60.00,Tuesday
12,147423476.29308254
60,37576202.78880001
281,55477343.86272
1113,38080591.252877735
1212,7998538.388670247
1262,1631136.6769844575
1286,0.0
1312,0.0
1530,1631136.6769844575
2,3, 1, 3, 0,22, 0.00,60.00,Tuesday
12,146687928.68446347
60,37576202.78880001
281,55477343.86272
1113,38080591.252877735
1212,7262990.780051205
1262,1631098.6756079944
1286,0.0
1312,0.0
1530,1631098.6756079944
2,3, 1, 3, 0,23, 0.00,60.00,Tuesday
12,88864784.6662928
60,18788101.394400004
281,55477343.86272
1113,5374928.451877694
1212,933610.9572805524
1262,72000.0
1286,0.0
1312,0.0
1530,72000.0
2,3, 1, 3, 0,24, 0.00,60.00,Tuesday
12,79442436.59093066
60,9394050.697200002
281,55477343.86272
1113,5374928.451877694
1212,905313.5791184286
1262,1631096.4473045152
1286,0.0
1312,0.0
1530,1631096.4473045152
2,4, 1, 4, 0, 1, 0.00,60.00,Wednesday
12,79413300.05625565
60,9394050.697200002
281,55477343.86272
1113,5374928.451877694
1212,876177.0444434145
1262,1631078.0764840178
1286,0.0
1312,0.0
1530,1631078.0764840178
2,4, 1, 4, 0, 2, 0.00,60.00,Wednesday
12,73162194.55993454
60,9394050.697200002
281,55477343.86272
1113,0.0
1212,0.0
1262,72000.0
1286,0.0
1312,0.0
1530,72000.0
2,4, 1, 4, 0, 3, 0.00,60.00,Wednesday
12,73162194.55993454
60,9394050.697200002
281,55477343.86272
1113,0.0
1212,0.0
1262,1631070.7698661387
1286,0.0
1312,0.0
1530,1631070.7698661387
2,4, 1, 4, 0, 4, 0.00,60.00,Wednesday
12,73162194.55993454
60,9394050.697200002
281,55477343.86272
1113,0.0
1212,0.0
1262,1631063.4312701528
1286,0.0
1312,0.0
1530,1631063.4312701528
2,4, 1, 4, 0, 5, 0.00,60.00,Wednesday
12,73162194.55993454
60,9394050.697200002
281,55477343.86272
1113,0.0
1212,0.0
1262,72000.0
1286,0.0
1312,0.0
1530,72000.0
2,4, 1, 4, 0, 6, 0.00,60.00,Wednesday
12,82556245.25713456
60,18788101.394400004
281,55477343.86272
1113,0.0
1212,0.0
1262,1631078.1963546406
1286,0.0
1312,0.0
1530,1631078.1963546406
2,4, 1, 4, 0, 7, 0.00,60.00,Wednesday
12,129559049.86161666
60,18788101.394400004
281,55477343.86272
1113,38080591.252877735
1212,8922213.351604385
1262,1631115.204229418
1286,0.0
1312,0.0
1530,1631115.204229418
2,4, 1, 4, 0, 8, 0.00,60.00,Wednesday
12,158426364.9999192
60,56364304.1832
281,55477343.86272
1113,38080591.252877735
1212,5740525.701106906
1262,1631123.569693935
1286,0.0
1312,0.0
1530,1631123.569693935
2,4, 1, 4, 0, 9, 0.00,60.00,Wednesday
12,350132468.6471434
60,169092912.5496
281,124824023.69112003
1113,38080591.252877735
1212,18134941.153531145
1262,1631242.4760390443
1286,0.0
1312,0.0
1530,1631242.4760390443
2,4, 1, 4, 0,10, 0.00,60.00,Wednesday
12,353997482.96918005
60,169092912.5496
281,124824023.69112003
1113,38080591.252877735
1212,21999955.475567833
1262,1631373.761968238
1286,0.0
1312,0.0
1530,1631373.761968238
2,4, 1, 4, 0,11, 0.00,60.00,Wednesday
12,355609970.65430987
60,169092912.5496
281,124824023.69112003
1113,38080591.252877735
1212,23612443.160697594
1262,1631400.348596956
1286,0.0
1312,0.0
1530,1631400.348596956
2,4, 1, 4, 0,12, 0.00,60.00,Wednesday
12,356659728.8160793
60,169092912.5496
281,124824023.69112003
1113,38080591.252877735
1212,24662201.32246703
1262,1631318.7659833303
1286,0.0
1312,0.0
1530,1631318.7659833303
2,4, 1, 4, 0,13, 0.00,60.00,Wednesday
12,342164430.55726296
60,169092912.5496
281,110954687.72544
1113,38080591.252877735
1212,24036239.02933068
1262,3190785.881421333
1286,0.0
1312,0.0
1530,3190785.881421333
2,4, 1, 4, 0,14, 0.00,60.00,Wednesday
12,357928127.55583483
60,169092912.5496
281,124824023.69112003
1113,38080591.252877735
1212,25930600.062222578
1262,1631433.3302255052
1286,0.0
1312,0.0
1530,1631433.3302255052
2,4, 1, 4, 0,15, 0.00,60.00,Wednesday
12,358170564.96865654
60,169092912.5496
281,124824023.69112003
1113,38080591.252877735
1212,26173037.475044284
1262,1631230.0886974337
1286,0.0
1312,0.0
1530,1631230.0886974337
2,4, 1, 4, 0,16, 0.00,60.00,Wednesday
12,358212552.24971414
60,169092912.5496
281,124824023.69112003
1113,38080591.252877735
1212,26215024.7561019
1262,1631284.0085015139
1286,0.0
1312,0.0
1530,1631284.0085015139
2,4, 1, 4, 0,17, 0.00,60.00,Wednesday
12,363239293.58919036
60,169092912.5496
281,124824023.69112003
1113,38080591.252877735
1212,25714566.095578097
1262,1631384.0643101642
1286,0.0
1312,0.0
1530,1631384.0643101642
2,4, 1, 4, 0,18, 0.00,60.00,Wednesday
12,225496739.09342992
60,93940506.972
281,69346679.82840002
1113,38080591.252877735
1212,15838161.040137637
1262,1631242.295953557
1286,0.0
1312,0.0
1530,1631242.295953557
2,4, 1, 4, 0,19, 0.00,60.00,Wednesday
12,168488712.60760266
60,56364304.1832
281,55477343.86272
1113,38080591.252877735
1212,10275673.30879035
1262,1631103.7447446678
1286,0.0
1312,0.0
1530,1631103.7447446678
2,4, 1, 4, 0,20, 0.00,60.00,Wednesday
12,166898850.4557559
60,56364304.1832
281,55477343.86272
1113,38080591.252877735
1212,8685811.156943602
1262,1631172.4683186756
1286,0.0
1312,0.0
1530,1631172.4683186756
2,4, 1, 4, 0,21, 0.00,60.00,Wednesday
12,146689831.22104076
60,37576202.78880001
281,55477343.86272
1113,38080591.252877735
1212,7264893.31662848
1262,1631138.5388139419
1286,0.0
1312,0.0
1530,1631138.5388139419
2,4, 1, 4, 0,22, 0.00,60.00,Wednesday
12,145939332.64189047
60,37576202.78880001
281,55477343.86272
1113,38080591.252877735
1212,6514394.737478221
1262,72000.0
1286,0.0
1312,0.0
1530,72000.0
2,4, 1, 4, 0,23, 0.00,60.00,Wednesday
12,84667499.4714494
60,18788101.394400004
281,55477343.86272
1113,1791642.8172925645
1212,319611.39702228585
1262,1631107.0370899145
1286,0.0
1312,0.0
1530,1631107.0370899145
2,4, 1, 4, 0,24, 0.00,60.00,Wednesday
12,77265852.31326386
60,9394050.697200002
281,55477343.86272
1113,3583285.634585129
1212,520372.118744193
1262,1631091.1052118344
1286,0.0
1312,0.0
1530,1631091.1052118344
2,5, 1, 5, 0, 1, 0.00,60.00,Thursday
12,73162194.55993454
60,9394050.697200002
281,55477343.86272
1113,0.0
1212,0.0
1262,72000.0
1286,0.0
1312,0.0
1530,72000.0
2,5, 1, 5, 0, 2, 0.00,60.00,Thursday
12,73162194.55993454
60,9394050.697200002
281,55477343.86272
1113,0.0
1212,0.0
1262,1631084.1526201973
1286,0.0
1312,0.0
1530,1631084.1526201973
2,5, 1, 5, 0, 3, 0.00,60.00,Thursday
12,73162194.55993454
60,9394050.697200002
281,55477343.86272
1113,0.0
1212,0.0
1262,1631077.085497438
1286,0.0
1312,0.0
1530,1631077.085497438
2,5, 1, 5, 0, 4, 0.00,60.00,Thursday
12,73162194.55993454
60,9394050.697200002
281,55477343.86272
1113,0.0
1212,0.0
1262,72000.0
1286,0.0
1312,0.0
1530,72000.0
2,5, 1, 5, 0, 5, 0.00,60.00,Thursday
12,73162194.55993454
60,9394050.697200002
281,55477343.86272
1113,0.0
1212,0.0
1262,1631084.3084419544
1286,0.0
1312,0.0
1530,1631084.3084419544
2,5, 1, 5, 0, 6, 0.00,60.00,Thursday
12,82556245.25713456
60,18788101.394400004
281,55477343.86272
1113,0.0
1212,0.0
1262,1631128.7553076514
1286,0.0
1312,0.0
1530,1631128.7553076514
2,5, 1, 5, 0, 7, 0.00,60.00,Thursday
12,127143372.72943963
60,18788101.394400004
281,55477343.86272
1113,38080591.252877735
1212,6506536.219427364
1262,72000.0
1286,0.0
1312,0.0
1530,72000.0
2,5, 1, 5, 0, 8, 0.00,60.00,Thursday
12,155185652.55841032
60,56364304.1832
281,55477343.86272
1113,38080591.252877735
1212,2499813.2595980247
1262,1631156.9792453067
1286,0.0
1312,0.0
1530,1631156.9792453067
2,5, 1, 5, 0, 9, 0.00,60.00,Thursday
12,346698473.7358397
60,169092912.5496
281,124824023.69112003
1113,38080591.252877735
1212,14700946.242227387
1262,1631361.5815087932
1286,0.0
1312,0.0
1530,1631361.5815087932
2,5, 1, 5, 0,10, 0.00,60.00,Thursday
12,351001361.7303214
60,169092912.5496
281,124824023.69112003
1113,38080591.252877735
1212,19003834.236709114
1262,1631373.0561098985
1286,0.0
1312,0.0
1530,1631373.0561098985
2,5, 1, 5, 0,11, 0.00,60.00,Thursday
12,353124173.0328596
60,169092912.5496
281,124824023.69112003
1113,38080591.252877735
1212,21126645.539247353
1262,1631401.6359638437
1286,0.0
1312,0.0
1530,1631401.6359638437
2,5, 1, 5, 0,12, 0.00,60.00,Thursday
12,354453482.25578666
60,169092912.5496
281,124824023.69112003
1113,38080591.252877735
1212,22455954.762174346
1262,3190880.110387777
1286,0.0
1312,0.0
1530,3190880.110387777
2,5, 1, 5, 0,13, 0.00,60.00,Thursday
12,340182502.0798039
60,169092912.5496
281,110954687.72544
1113,38080591.252877735
1212,22054310.55187156
1262,1631349.9251909691
1286,0.0
1312,0.0
1530,1631349.9251909691
2,5, 1, 5, 0,14, 0.00,60.00,Thursday
12,356162704.0284381
60,169092912.5496
281,124824023.69112003
1113,38080591.252877735
1212,24165176.53482576
1262,1631461.326500521
1286,0.0
1312,0.0
1530,1631461.326500521
2,5, 1, 5, 0,15, 0.00,60.00,Thursday
12,357041861.14080703
60,169092912.5496
281,124824023.69112003
1113,38080591.252877735
1212,25044333.647194784
1262,1631354.8453545761
1286,0.0
1312,0.0
1530,1631354.8453545761
2,5, 1, 5, 0,16, 0.00,60.00,Thursday
12,357168665.834999
60,169092912.5496
281,124824023.69112003
1113,38080591.252877735
1212,25171138.34138672
1262,1631316.5204741743
1286,0.0
1312,0.0
1530,1631316.5204741743
2,5, 1, 5, 0,17, 0.00,60.00,Thursday
12,362105068.66780066
60,169092912.5496
281,124824023.69112003
1113,38080591.252877735
1212,24580341.17418837
1262,3190777.497930867
1286,0.0
1312,0.0
1530,3190777.497930867
2,5, 1, 5, 0,18, 0.00,60.00,Thursday
12,224733593.04680815
60,93940506.972
281,69346679.82840002
1113,38080591.252877735
1212,15075014.99351586
1262,1631163.6175601748
1286,0.0
1312,0.0
1530,1631163.6175601748
2,5, 1, 5, 0,19, 0.00,60.00,Thursday
12,168001089.42572227
60,56364304.1832
281,55477343.86272
1113,38080591.252877735
1212,9788050.126909979
1262,72000.0
1286,0.0
1312,0.0
1530,72000.0
2,5, 1, 5, 0,20, 0.00,60.00,Thursday
12,166329428.35946718
60,56364304.1832
281,55477343.86272
1113,38080591.252877735
1212,8116389.060654877
1262,1631114.5407790185
1286,0.0
1312,0.0
1530,1631114.5407790185
2,5, 1, 5, 0,21, 0.00,60.00,Thursday
12,145770198.83761474
60,37576202.78880001
281,55477343.86272
1113,38080591.252877735
1212,6345260.933202495
1262,1631197.9549965065
1286,0.0
1312,0.0
1530,1631197.9549965065
2,5, 1, 5, 0,22, 0.00,60.00,Thursday
12,144803983.57177988
60,37576202.78880001
281,55477343.86272
1113,38080591.252877735
1212,5379045.6673676055
1262,1631024.6792090868
1286,0.0
1312,0.0
1530,1631024.6792090868
2,5, 1, 5, 0,23, 0.00,60.00,Thursday
12,82556245.25713456
60,18788101.394400004
281,55477343.86272
1113,0.0
1212,0.0
1262,72000.0
1286,0.0
1312,0.0
1530,72000.0
2,5, 1, 5, 0,24, 0.00,60.00,Thursday
12,73162194.55993454
60,9394050.697200002
281,55477343.86272
1113,0.0
1212,0.0
1262,1631013.8198102692
1286,0.0
1312,0.0
1530,1631013.8198102692
2,6, 1, 6, 0, 1, 0.00,60.00,Friday
12,73162194.55993454
60,9394050.697200002
281,55477343.86272
1113,0.0
1212,0.0
1262,1631006.6670801362
1286,0.0
1312,0.0
1530,1631006.6670801362
2,6, 1, 6, 0, 2, 0.00,60.00,Friday
12,73162194.55993454
60,9394050.697200002
281,55477343.86272
1113,0.0
1212,0.0
1262,72000.0
1286,0.0
1312,0.0
1530,72000.0
2,6, 1, 6, 0, 3, 0.00,60.00,Friday
12,73162194.55993454
60,9394050.697200002
281,55477343.86272
1113,0.0
1212,0.0
1262,1631103.9474804194
1286,0.0
1312,0.0
1530,1631103.9474804194
2,6, 1, 6, 0, 4, 0.00,60.00,Friday
12,73162194.55993454
60,9394050.697200002
281,55477343.86272
1113,0.0
1212,0.0
1262,1631097.223421921
1286,0.0
1312,0.0
1530,1631097.223421921
2,6, 1, 6, 0, 5, 0.00,60.00,Friday
12,73162194.55993454
60,9394050.697200002
281,55477343.86272
1113,0.0
1212,0.0
1262,72000.0
1286,0.0
1312,0.0
1530,72000.0
2,6, 1, 6, 0, 6, 0.00,60.00,Friday
12,82556245.25713456
60,18788101.394400004
281,55477343.86272
1113,0.0
1212,0.0
1262,1631121.7225202788
1286,0.0
1312,0.0
1530,1631121.7225202788
2,6, 1, 6, 0, 7, 0.00,60.00,Friday
12,126432809.06991132
60,18788101.394400004
281,55477343.86272
1113,38080591.252877735
1212,5795972.559899033
1262,1631045.8184007648
1286,0.0
1312,0.0
1530,1631045.8184007648
2,6, 1, 6, 0, 8, 0.00,60.00,Friday
12,154668309.82397708
60,56364304.1832
281,55477343.86272
1113,38080591.252877735
1212,1982470.5251648142
1262,1631195.667239413
1286,0.0
1312,0.0
1530,1631195.667239413
2,6, 1, 6, 0, 9, 0.00,60.00,Friday
12,346141424.634283
60,169092912.5496
281,124824023.69112003
1113,38080591.252877735
1212,14143897.140670678
1262,1631366.118602199
1286,0.0
1312,0.0
1530,1631366.118602199
2,6, 1, 6, 0,10, 0.00,60.00,Friday
12,350236289.2943809
60,169092912.5496
281,124824023.69112003
1113,38080591.252877735
1212,18238761.800768614
1262,1631375.3324122315
1286,0.0
1312,0.0
1530,1631375.3324122315
2,6, 1, 6, 0,11, 0.00,60.00,Friday
12,351755309.05775315
60,169092912.5496
281,124824023.69112003
1113,38080591.252877735
1212,19757781.56414087
1262,1631336.166006631
1286,0.0
1312,0.0
1530,1631336.166006631
2,6, 1, 6, 0,12, 0.00,60.00,Friday
12,352115264.437543
60,169092912.5496
281,124824023.69112003
1113,38080591.252877735
1212,20117736.943930753
1262,1631246.266645516
1286,0.0
1312,0.0
1530,1631246.266645516
2,6, 1, 6, 0,13, 0.00,60.00,Friday
12,337251188.0510143
60,169092912.5496
281,110954687.72544
1113,38080591.252877735
1212,19122996.523081984
1262,1631377.083824798
1286,0.0
1312,0.0
1530,1631377.083824798
2,6, 1, 6, 0,14, 0.00,60.00,Friday
12,352585349.38616383
60,169092912.5496
281,124824023.69112003
1113,38080591.252877735
1212,20587821.892551545
1262,3190874.6016291194
1286,0.0
1312,0.0
1530,3190874.6016291194
2,6, 1, 6, 0,15, 0.00,60.00,Friday
12,353116259.7745145
60,169092912.5496
281,124824023.69112003
1113,38080591.252877735
1212,21118732.28090223
1262,1631168.7572367592
1286,0.0
1312,0.0
1530,1631168.7572367592
2,6, 1, 6, 0,16, 0.00,60.00,Friday
12,353314053.11182
60,169092912.5496
281,124824023.69112003
1113,38080591.252877735
1212,21316525.61820768
1262,1631209.8390136366
1286,0.0
1312,0.0
1530,1631209.8390136366
2,6, 1, 6, 0,17, 0.00,60.00,Friday
12,358516696.8286419
60,169092912.5496
281,124824023.69112003