Program Version,EnergyPlus, Version 25.1.0-68a4a7c774, YMD=2025.10.28 18:22
1,5,Environment Title[],Latitude[deg],Longitude[deg],Time Zone[],Elevation[m]
2,8,Day of Simulation[],Month[],Day of Month[],DST Indicator[1=yes 0=no],Hour[],StartMinute[],EndMinute[],DayType
3,5,Cumulative Day of Simulation[],Month[],Day of Month[],DST Indicator[1=yes 0=no],DayType  ! When Daily Meters Requested
4,2,Cumulative Days of Simulation[],Month[]  ! When Monthly Meters Requested
5,1,Cumulative Days of Simulation[] ! When Run Period Meters Requested
6,1,Calendar Year of Simulation[] ! When Annual Meters Requested
12,1,Electricity:Facility [J] !Hourly
1113,1,Fans:Electricity [J] !Hourly
1212,1,Cooling:Electricity [J] !Hourly
1312,1,Heating:Electricity [J] !Hourly
60,1,InteriorLights:Electricity [J] !Hourly
281,1,InteriorEquipment:Electricity [J] !Hourly
1262,1,NaturalGas:Facility [J] !Hourly
1286,1,Heating:NaturalGas [J] !Hourly
1530,1,Water Heater:WaterSystems:NaturalGas [J] !Hourly
14,9,Electricity:Facility [J] !Monthly [Value,Min,Day,Hour,Minute,Max,Day,Hour,Minute]
1264,9,NaturalGas:Facility [J] !Monthly [Value,Min,Day,Hour,Minute,Max,Day,Hour,Minute]
1360,9,Water:Facility [m3] !Monthly [Value,Min,Day,Hour,Minute,Max,Day,Hour,Minute]
462,9,EnergyTransfer:Facility [J] !Monthly [Value,Min,Day,Hour,Minute,Max,Day,Hour,Minute]
955,9,ElectricityPurchased:Facility [J] !Monthly [Value,Min,Day,Hour,Minute,Max,Day,Hour,Minute]
1004,9,ElectricitySurplusSold:Facility [J] !Monthly [Value,Min,Day,Hour,Minute,Max,Day,Hour,Minute]
1053,9,ElectricityNet:Facility [J] !Monthly [Value,Min,Day,Hour,Minute,Max,Day,Hour,Minute]
2287,9,Carbon Equivalent:Facility [kg] !Monthly [Value,Min,Day,Hour,Minute,Max,Day,Hour,Minute]
906,9,PlantLoopHeatingDemand:Facility [J] !Monthly [Value,Min,Day,Hour,Minute,Max,Day,Hour,Minute]
1409,9,MainsWater:Facility [m3] !Monthly [Value,Min,Day,Hour,Minute,Max,Day,Hour,Minute]
1965,9,WaterEnvironmentalFactors:Facility [L] !Monthly [Value,Min,Day,Hour,Minute,Max,Day,Hour,Minute]
1615,9,Source:Facility [J] !Monthly [Value,Min,Day,Hour,Minute,Max,Day,Hour,Minute]
1765,9,SO2:Facility [kg] !Monthly [Value,Min,Day,Hour,Minute,Max,Day,Hour,Minute]
1715,9,NOx:Facility [kg] !Monthly [Value,Min,Day,Hour,Minute,Max,Day,Hour,Minute]
1740,9,N2O:Facility [kg] !Monthly [Value,Min,Day,Hour,Minute,Max,Day,Hour,Minute]
1790,9,PM:Facility [kg] !Monthly [Value,Min,Day,Hour,Minute,Max,Day,Hour,Minute]
1840,9,PM2.5:Facility [kg] !Monthly [Value,Min,Day,Hour,Minute,Max,Day,Hour,Minute]
1815,9,PM10:Facility [kg] !Monthly [Value,Min,Day,Hour,Minute,Max,Day,Hour,Minute]
1665,9,CO:Facility [kg] !Monthly [Value,Min,Day,Hour,Minute,Max,Day,Hour,Minute]
1640,9,CO2:Facility [kg] !Monthly [Value,Min,Day,Hour,Minute,Max,Day,Hour,Minute]
1690,9,CH4:Facility [kg] !Monthly [Value,Min,Day,Hour,Minute,Max,Day,Hour,Minute]
1865,9,NH3:Facility [kg] !Monthly [Value,Min,Day,Hour,Minute,Max,Day,Hour,Minute]
1890,9,NMVOC:Facility [kg] !Monthly [Value,Min,Day,Hour,Minute,Max,Day,Hour,Minute]
1915,9,Hg:Facility [kg] !Monthly [Value,Min,Day,Hour,Minute,Max,Day,Hour,Minute]
1940,9,Pb:Facility [kg] !Monthly [Value,Min,Day,Hour,Minute,Max,Day,Hour,Minute]
1990,9,Nuclear High:Facility [kg] !Monthly [Value,Min,Day,Hour,Minute,Max,Day,Hour,Minute]
2015,9,Nuclear Low:Facility [m3] !Monthly [Value,Min,Day,Hour,Minute,Max,Day,Hour,Minute]
End of Data Dictionary
1,ANNUAL,  41.98, -87.92,  -6.00, 201.00
2,1, 1, 1, 0, 1, 0.00,60.00,Holiday
12,36165644.26273454
60,5610668.08536
281,22264176.177360002
1113,0.0
1212,0.0
1262,72000.0
1286,0.0
1312,0.0
1530,72000.0
2,1, 1, 1, 0, 2, 0.00,60.00,Holiday
12,36165644.26273454
60,5610668.08536
281,22264176.177360002
1113,0.0
1212,0.0
1262,1631084.0644838575
1286,0.0
1312,0.0
1530,1631084.0644838575
2,1, 1, 1, 0, 3, 0.00,60.00,Holiday
12,36165644.26273454
60,5610668.08536
281,22264176.177360002
1113,0.0
1212,0.0
1262,72000.0
1286,0.0
1312,0.0
1530,72000.0
2,1, 1, 1, 0, 4, 0.00,60.00,Holiday
12,36755175.4995843
60,5610668.08536
281,22264176.177360002
1113,577740.8838686536
1212,11790.352981106727
1262,1631044.8345960123
1286,0.0
1312,0.0
1530,1631044.8345960123
2,1, 1, 1, 0, 5, 0.00,60.00,Holiday
12,37347199.88895424
60,5610668.08536
281,22264176.177360002
1113,1155481.7677373071
1212,26073.858482390642
1262,1631018.124554019
1286,0.0
1312,0.0
1530,1631018.124554019
2,1, 1, 1, 0, 6, 0.00,60.00,Holiday
12,37936423.62215751
60,5610668.08536
281,22264176.177360002
1113,1733222.6516059607
1212,37556.70781700235
1262,72000.0
1286,0.0
1312,0.0
1530,72000.0
2,1, 1, 1, 0, 7, 0.00,60.00,Holiday
12,37935875.96570395
60,5610668.08536
281,22264176.177360002
1113,1733222.6516059607
1212,37009.05136345055
1262,1631031.0818482658
1286,0.0
1312,0.0
1530,1631031.0818482658
2,1, 1, 1, 0, 8, 0.00,60.00,Holiday
12,33886195.979380265
60,5610668.08536
281,22264176.177360002
1113,3167805.62476099
1212,79946.09188473447
1262,1631092.118906597
1286,0.0
1312,0.0
1530,1631092.118906597
2,1, 1, 1, 0, 9, 0.00,60.00,Holiday
12,27874844.262734544
60,5610668.08536
281,22264176.177360002
1113,0.0
1212,0.0
1262,72000.0
1286,0.0
1312,0.0
1530,72000.0
2,1, 1, 1, 0,10, 0.00,60.00,Holiday
12,27874844.262734544
60,5610668.08536
281,22264176.177360002
1113,0.0
1212,0.0
1262,1631096.8593321906
1286,0.0
1312,0.0
1530,1631096.8593321906
2,1, 1, 1, 0,11, 0.00,60.00,Holiday
12,27874844.262734544
60,5610668.08536
281,22264176.177360002
1113,0.0
1212,0.0
1262,1631101.7883228036
1286,0.0
1312,0.0
1530,1631101.7883228036
2,1, 1, 1, 0,12, 0.00,60.00,Holiday
12,27874844.262734544
60,5610668.08536
281,22264176.177360002
1113,0.0
1212,0.0
1262,72000.0
1286,0.0
1312,0.0
1530,72000.0
2,1, 1, 1, 0,13, 0.00,60.00,Holiday
12,27874844.262734544
60,5610668.08536
281,22264176.177360002
1113,0.0
1212,0.0
1262,1631069.3990158632
1286,0.0
1312,0.0
1530,1631069.3990158632
2,1, 1, 1, 0,14, 0.00,60.00,Holiday
12,27874844.262734544
60,5610668.08536
281,22264176.177360002
1113,0.0
1212,0.0
1262,1631130.1905029486
1286,0.0
1312,0.0
1530,1631130.1905029486
2,1, 1, 1, 0,15, 0.00,60.00,Holiday
12,27874844.262734544
60,5610668.08536
281,22264176.177360002
1113,0.0
1212,0.0
1262,72000.0
1286,0.0
1312,0.0
1530,72000.0
2,1, 1, 1, 0,16, 0.00,60.00,Holiday
12,27874844.262734544
60,5610668.08536
281,22264176.177360002
1113,0.0
1212,0.0
1262,1631007.772315105
1286,0.0
1312,0.0
1530,1631007.772315105
2,1, 1, 1, 0,17, 0.00,60.00,Holiday
12,33402044.262734544
60,5610668.08536
281,22264176.177360002
1113,0.0
1212,0.0
1262,1631092.113528468
1286,0.0
1312,0.0
1530,1631092.113528468
2,1, 1, 1, 0,18, 0.00,60.00,Holiday
12,36165644.26273454
60,5610668.08536
281,22264176.177360002
1113,0.0
1212,0.0
1262,72000.0
1286,0.0
1312,0.0
1530,72000.0
2,1, 1, 1, 0,19, 0.00,60.00,Holiday
12,36165644.26273454
60,5610668.08536
281,22264176.177360002
1113,0.0
1212,0.0
1262,1631055.3506354024
1286,0.0
1312,0.0
1530,1631055.3506354024
2,1, 1, 1, 0,20, 0.00,60.00,Holiday
12,36165644.26273454
60,5610668.08536
281,22264176.177360002
1113,0.0
1212,0.0
1262,1631028.6189084572
1286,0.0
1312,0.0
1530,1631028.6189084572
2,1, 1, 1, 0,21, 0.00,60.00,Holiday
12,36165644.26273454
60,5610668.08536
281,22264176.177360002
1113,0.0
1212,0.0
1262,72000.0
1286,0.0
1312,0.0
1530,72000.0
2,1, 1, 1, 0,22, 0.00,60.00,Holiday
12,36165644.26273454
60,5610668.08536
281,22264176.177360002
1113,0.0
1212,0.0
1262,1631030.961342432
1286,0.0
1312,0.0
1530,1631030.961342432
2,1, 1, 1, 0,23, 0.00,60.00,Holiday
12,36165644.26273454
60,5610668.08536
281,22264176.177360002
1113,0.0
1212,0.0
1262,1631012.4890733077
1286,0.0
1312,0.0
1530,1631012.4890733077
2,1, 1, 1, 0,24, 0.00,60.00,Holiday
12,36165644.26273454
60,5610668.08536
281,22264176.177360002
1113,0.0
1212,0.0
1262,72000.0
1286,0.0
1312,0.0
1530,72000.0
2,2, 1, 2, 0, 1, 0.00,60.00,Monday
12,43587036.32185454
60,5610668.08536
281,29685568.236480005
1113,0.0
1212,0.0
1262,1631099.50286897
1286,0.0
1312,0.0
1530,1631099.50286897
2,2, 1, 2, 0, 2, 0.00,60.00,Monday
12,43587036.32185454
60,5610668.08536
281,29685568.236480005
1113,0.0
1212,0.0
1262,1631092.0017251682
1286,0.0
1312,0.0
1530,1631092.0017251682
2,2, 1, 2, 0, 3, 0.00,60.00,Monday
12,43587036.32185454
60,5610668.08536
281,29685568.236480005
1113,0.0
1212,0.0
1262,72000.0
1286,0.0
1312,0.0
1530,72000.0
2,2, 1, 2, 0, 4, 0.00,60.00,Monday
12,43587036.32185454
60,5610668.08536
281,29685568.236480005
1113,0.0
1212,0.0
1262,1631084.4324644671
1286,0.0
1312,0.0
1530,1631084.4324644671
2,2, 1, 2, 0, 5, 0.00,60.00,Monday
12,43587036.32185454
60,5610668.08536
281,29685568.236480005
1113,0.0
1212,0.0
1262,1631076.798775238
1286,0.0
1312,0.0
1530,1631076.798775238
2,2, 1, 2, 0, 6, 0.00,60.00,Monday
12,49197704.407214545
60,11221336.17072
281,29685568.236480005
1113,0.0
1212,0.0
1262,72000.0
1286,0.0
1312,0.0
1530,72000.0
2,2, 1, 2, 0, 7, 0.00,60.00,Monday
12,73437640.83932137
60,11221336.17072
281,29685568.236480005
1113,23547969.53267147
1212,691966.8994353587
1262,22139409.50029584
1286,20508387.765223376
1312,0.0
1530,1631021.7350724628
2,2, 1, 2, 0, 8, 0.00,60.00,Monday
12,89932757.1256764
60,33664008.512159996
281,29685568.236480005
1113,23547969.53267147
1212,271610.84435038007
1262,18861264.610216644
1286,17230152.140246283
1312,0.0
1530,1631112.46997036
2,2, 1, 2, 0, 9, 0.00,60.00,Monday
12,192973503.81174442
60,100992025.53648001
281,66792528.532079995
1113,23547969.53267147
1212,1640980.210498421
1262,2012911.5905031778
1286,381721.56884448655
1312,0.0
1530,1631190.0216586913
2,2, 1, 2, 0,10, 0.00,60.00,Monday
12,195277801.2376152
60,100992025.53648001
281,66792528.532079995
1113,23547969.53267147
1212,3945277.6363691725
1262,1631318.3114354215
1286,0.0
1312,0.0
1530,1631318.3114354215
2,2, 1, 2, 0,11, 0.00,60.00,Monday
12,197356214.52178043
60,100992025.53648001
281,66792528.532079995
1113,23547969.53267147
1212,6023690.92053442
1262,1631340.9078021755
1286,0.0
1312,0.0
1530,1631340.9078021755
2,2, 1, 2, 0,12, 0.00,60.00,Monday
12,198566665.31422934
60,100992025.53648001
281,66792528.532079995
1113,23547969.53267147
1212,7234141.712983321
1262,1631462.9497432392
1286,0.0
1312,0.0
1530,1631462.9497432392
2,2, 1, 2, 0,13, 0.00,60.00,Monday
12,191062190.1942984
60,100992025.53648001
281,59371136.47296001
1113,23547969.53267147
1212,7151058.652172357
1262,3190943.5395069914
1286,0.0
1312,0.0
1530,3190943.5395069914
2,2, 1, 2, 0,14, 0.00,60.00,Monday
12,199702123.12361094
60,100992025.53648001
281,66792528.532079995
1113,23547969.53267147
1212,8369599.52236491
1262,1631315.416050238
1286,0.0
1312,0.0
1530,1631315.416050238
2,2, 1, 2, 0,15, 0.00,60.00,Monday
12,199898156.0957721
60,100992025.53648001
281,66792528.532079995
1113,23547969.53267147
1212,8565632.49452605
1262,1631354.103852002
1286,0.0
1312,0.0
1530,1631354.103852002
2,2, 1, 2, 0,16, 0.00,60.00,Monday
12,200433366.0739533
60,100992025.53648001
281,66792528.532079995
1113,23547969.53267147
1212,9100842.472707285
1262,1631309.0716231256
1286,0.0
1312,0.0
1530,1631309.0716231256
2,2, 1, 2, 0,17, 0.00,60.00,Monday
12,206421076.06147188
60,100992025.53648001
281,66792528.532079995
1113,23547969.53267147
1212,9561352.46022581
1262,1631395.7768178887
1286,0.0
1312,0.0
1530,1631395.7768178887
2,2, 1, 2, 0,18, 0.00,60.00,Monday
12,129549191.34827696
60,56106680.85360001
281,37106960.295600004
1113,23547969.53267147
1212,4496780.666390949
1262,1631177.4001164346
1286,0.0
1312,0.0
1530,1631177.4001164346
2,2, 1, 2, 0,19, 0.00,60.00,Monday
12,97156948.79157189
60,33664008.512159996
281,29685568.236480005
1113,23547969.53267147
1212,1968602.5102458736
1262,1631216.181552603
1286,0.0
1312,0.0
1530,1631216.181552603
2,2, 1, 2, 0,20, 0.00,60.00,Monday
12,96689569.65772034
60,33664008.512159996
281,29685568.236480005
1113,23547969.53267147
1212,1501223.3763943291
1262,1631146.718437582
1286,0.0
1312,0.0
1530,1631146.718437582
2,2, 1, 2, 0,21, 0.00,60.00,Monday
12,84892207.28707187
60,22442672.34144
281,29685568.236480005
1113,23547969.53267147
1212,925197.1764658398
1262,1631106.4107078835
1286,0.0
1312,0.0
1530,1631106.4107078835
2,2, 1, 2, 0,22, 0.00,60.00,Monday
12,84857537.38971856
60,22442672.34144
281,29685568.236480005
1113,23547969.53267147
1212,890527.2791125432
1262,72000.0
1286,0.0
1312,0.0
1530,72000.0
2,2, 1, 2, 0,23, 0.00,60.00,Monday
12,49197704.407214545
60,11221336.17072
281,29685568.236480005
1113,0.0
1212,0.0
1262,1631093.7642970341
1286,0.0
1312,0.0
1530,1631093.7642970341
2,2, 1, 2, 0,24, 0.00,60.00,Monday
12,43587036.32185454
60,5610668.08536
281,29685568.236480005
1113,0.0
1212,0.0
1262,1631085.9716928157
1286,0.0
1312,0.0
1530,1631085.9716928157
2,3, 1, 3, 0, 1, 0.00,60.00,Tuesday
12,43587036.32185454
60,5610668.08536
281,29685568.236480005
1113,0.0
1212,0.0
1262,72000.0
1286,0.0
1312,0.0
1530,72000.0
2,3, 1, 3, 0, 2, 0.00,60.00,Tuesday
12,43587036.32185454
60,5610668.08536
281,29685568.236480005
1113,0.0
1212,0.0
1262,1631078.5883618651
1286,0.0
1312,0.0
1530,1631078.5883618651
2,3, 1, 3, 0, 3, 0.00,60.00,Tuesday
12,43587036.32185454
60,5610668.08536
281,29685568.236480005
1113,0.0
1212,0.0
1262,1631071.1091506863
1286,0.0
1312,0.0
1530,1631071.1091506863
2,3, 1, 3, 0, 4, 0.00,60.00,Tuesday
12,43587036.32185454
60,5610668.08536
281,29685568.236480005
1113,0.0
1212,0.0
1262,72000.0
1286,0.0
1312,0.0
1530,72000.0
2,3, 1, 3, 0, 5, 0.00,60.00,Tuesday
12,43587036.32185454
60,5610668.08536
281,29685568.236480005
1113,0.0
1212,0.0
1262,1631063.5835053206
1286,0.0
1312,0.0
1530,1631063.5835053206
2,3, 1, 3, 0, 6, 0.00,60.00,Tuesday
12,49197704.407214545
60,11221336.17072
281,29685568.236480005
1113,0.0
1212,0.0
1262,1631105.8137057454
1286,0.0
1312,0.0
1530,1631105.8137057454
2,3, 1, 3, 0, 7, 0.00,60.00,Tuesday
12,74174661.31265965
60,11221336.17072
281,29685568.236480005
1113,23547969.53267147
1212,1428987.37277363
1262,72000.0
1286,0.0
1312,0.0
1530,72000.0
2,3, 1, 3, 0, 8, 0.00,60.00,Tuesday
12,90227548.10658239
60,33664008.512159996
281,29685568.236480005
1113,23547969.53267147
1212,566401.8252563645
1262,7405114.654933804
1286,5774006.001171027
1312,0.0
1530,1631108.6537627762
2,3, 1, 3, 0, 9, 0.00,60.00,Tuesday
12,195041838.22362116
60,100992025.53648001
281,66792528.532079995
1113,23547969.53267147
1212,3709314.622375124
1262,1631271.0822438544
1286,0.0
1312,0.0
1530,1631271.0822438544
2,3, 1, 3, 0,10, 0.00,60.00,Tuesday
12,197392062.61587125
60,100992025.53648001
281,66792528.532079995
1113,23547969.53267147
1212,6059539.01462524
1262,1631370.1829641308
1286,0.0
1312,0.0
1530,1631370.1829641308
2,3, 1, 3, 0,11, 0.00,60.00,Tuesday
12,198653821.58183247
60,100992025.53648001
281,66792528.532079995
1113,23547969.53267147
1212,7321297.980586438
1262,3190498.426808657
1286,0.0
1312,0.0
1530,3190498.426808657
2,3, 1, 3, 0,12, 0.00,60.00,Tuesday
12,199535921.59340262
60,100992025.53648001
281,66792528.532079995
1113,23547969.53267147
1212,8203397.992156583
1262,1631274.508034754
1286,0.0
1312,0.0
1530,1631274.508034754
2,3, 1, 3, 0,13, 0.00,60.00,Tuesday
12,191888648.6714122
60,100992025.53648001
281,59371136.47296001
1113,23547969.53267147
1212,7977517.129286155
1262,1631452.3127451243
1286,0.0
1312,0.0
1530,1631452.3127451243
2,3, 1, 3, 0,14, 0.00,60.00,Tuesday
12,200621675.8887463
60,100992025.53648001
281,66792528.532079995
1113,23547969.53267147
1212,9289152.287500303
1262,1631310.1726922998
1286,0.0
1312,0.0
1530,1631310.1726922998
2,3, 1, 3, 0,15, 0.00,60.00,Tuesday
12,200952027.71250996
60,100992025.53648001
281,66792528.532079995
1113,23547969.53267147
1212,9619504.111263942
1262,1631269.6552634742
1286,0.0
1312,0.0
1530,1631269.6552634742
2,3, 1, 3, 0,16, 0.00,60.00,Tuesday
12,201135663.24493068
60,100992025.53648001
281,66792528.532079995
1113,23547969.53267147
1212,9803139.643684683
1262,1631303.1527416913
1286,0.0
1312,0.0
1530,1631303.1527416913
2,3, 1, 3, 0,17, 0.00,60.00,Tuesday
12,206699179.99320215
60,100992025.53648001
281,66792528.532079995
1113,23547969.53267147
1212,9839456.39195617
1262,3190845.406558403
1286,0.0
1312,0.0
1530,3190845.406558403
2,3, 1, 3, 0,18, 0.00,60.00,Tuesday
12,129903922.52411115
60,56106680.85360001
281,37106960.295600004
1113,23547969.53267147
1212,4851511.8422251465
1262,1631246.8382997252
1286,0.0
1312,0.0
1530,1631246.8382997252
2,3, 1, 3, 0,19, 0.00,60.00,Tuesday
12,97334606.0301584
60,33664008.512159996
281,29685568.236480005
1113,23547969.53267147
1212,2146259.7488323865
1262,72000.0
1286,0.0
1312,0.0
1530,72000.0
2,3, 1, 3, 0,20, 0.00,60.00,Tuesday
12,96549933.59022683
60,33664008.512159996
281,29685568.236480005
1113,23547969.53267147
1212,1361587.3089008045
1262,1631192.3428752513
1286,0.0
1312,0.0
1530,1631192.3428752513
2,3, 1, 3, 0,21, 0.00,60.00,Tuesday
12,84779995.18887289
60,22442672.34144
281,29685568.236480005
1113,23547969.53267147
1212,812985.0782668684
1262,1631136.3929172298
1286,0.0
1312,0.0
1530,1631136.3929172298
2,3, 1, 3, 0,22, 0.00,60.00,Tuesday
12,84772892.96993941
60,22442672.34144
281,29685568.236480005
1113,23547969.53267147
1212,805882.8593333792
1262,1631098.4170465348
1286,0.0
1312,0.0
1530,1631098.4170465348
2,3, 1, 3, 0,23, 0.00,60.00,Tuesday
12,49197704.407214545
60,11221336.17072
281,29685568.236480005
1113,0.0
1212,0.0
1262,72000.0
1286,0.0
1312,0.0
1530,72000.0
2,3, 1, 3, 0,24, 0.00,60.00,Tuesday
12,43587036.32185454
60,5610668.08536
281,29685568.236480005
1113,0.0
1212,0.0
1262,1631085.0376903564
1286,0.0
1312,0.0
1530,1631085.0376903564
2,4, 1, 4, 0, 1, 0.00,60.00,Wednesday
12,43587036.32185454
60,5610668.08536
281,29685568.236480005
1113,0.0
1212,0.0
1262,1631077.755212582
1286,0.0
1312,0.0
1530,1631077.755212582
2,4, 1, 4, 0, 2, 0.00,60.00,Wednesday
12,43587036.32185454
60,5610668.08536
281,29685568.236480005
1113,0.0
1212,0.0
1262,72000.0
1286,0.0
1312,0.0
1530,72000.0
2,4, 1, 4, 0, 3, 0.00,60.00,Wednesday
12,43587036.32185454
60,5610668.08536
281,29685568.236480005
1113,0.0
1212,0.0
1262,1631070.459916951
1286,0.0
1312,0.0
1530,1631070.459916951
2,4, 1, 4, 0, 4, 0.00,60.00,Wednesday
12,43587036.32185454
60,5610668.08536
281,29685568.236480005
1113,0.0
1212,0.0
1262,1631063.116962378
1286,0.0
1312,0.0
1530,1631063.116962378
2,4, 1, 4, 0, 5, 0.00,60.00,Wednesday
12,43587036.32185454
60,5610668.08536
281,29685568.236480005
1113,0.0
1212,0.0
1262,72000.0
1286,0.0
1312,0.0
1530,72000.0
2,4, 1, 4, 0, 6, 0.00,60.00,Wednesday
12,49197704.407214545
60,11221336.17072
281,29685568.236480005
1113,0.0
1212,0.0
1262,1631077.8789662991
1286,0.0
1312,0.0
1530,1631077.8789662991
2,4, 1, 4, 0, 7, 0.00,60.00,Wednesday
12,74060006.69518447
60,11221336.17072
281,29685568.236480005
1113,23547969.53267147
1212,1314332.755298434
1262,2362366.4877276905
1286,731251.4075193771
1312,0.0
1530,1631115.0802083132
2,4, 1, 4, 0, 8, 0.00,60.00,Wednesday
12,90234298.66011952
60,33664008.512159996
281,29685568.236480005
1113,23547969.53267147
1212,573152.3787935001
1262,7037643.977422697
1286,5406520.763301917
1312,0.0
1530,1631123.2141207787
2,4, 1, 4, 0, 9, 0.00,60.00,Wednesday
12,195379374.78550208
60,100992025.53648001
281,66792528.532079995
1113,23547969.53267147
1212,4046851.1842560754
1262,1631242.1075659744
1286,0.0
1312,0.0
1530,1631242.1075659744
2,4, 1, 4, 0,10, 0.00,60.00,Wednesday
12,197992737.6597883
60,100992025.53648001
281,66792528.532079995
1113,23547969.53267147
1212,6660214.058542307
1262,1631373.4355976796
1286,0.0
1312,0.0
1530,1631373.4355976796
2,4, 1, 4, 0,11, 0.00,60.00,Wednesday
12,199258984.6540668
60,100992025.53648001
281,66792528.532079995
1113,23547969.53267147
1212,7926461.05282076
1262,1631400.0135397043
1286,0.0
1312,0.0
1530,1631400.0135397043
2,4, 1, 4, 0,12, 0.00,60.00,Wednesday
12,200125136.32719743
60,100992025.53648001
281,66792528.532079995
1113,23547969.53267147
1212,8792612.725951426
1262,1631318.3757763794
1286,0.0
1312,0.0
1530,1631318.3757763794
2,4, 1, 4, 0,13, 0.00,60.00,Wednesday
12,192491602.2557698
60,100992025.53648001
281,59371136.47296001
1113,23547969.53267147
1212,8580470.713643774
1262,3190785.1003931095
1286,0.0
1312,0.0
1530,3190785.1003931095
2,4, 1, 4, 0,14, 0.00,60.00,Wednesday
12,201231505.91446713
60,100992025.53648001
281,66792528.532079995
1113,23547969.53267147
1212,9898982.313221097
1262,1631432.9395386074
1286,0.0
1312,0.0
1530,1631432.9395386074
2,4, 1, 4, 0,15, 0.00,60.00,Wednesday
12,201471154.74975252
60,100992025.53648001
281,66792528.532079995
1113,23547969.53267147
1212,10138631.148506496
1262,1631229.7171878684
1286,0.0
1312,0.0
1530,1631229.7171878684
2,4, 1, 4, 0,16, 0.00,60.00,Wednesday
12,201549179.68164694
60,100992025.53648001
281,66792528.532079995
1113,23547969.53267147
1212,10216656.080400877
1262,1631283.681171173
1286,0.0
1312,0.0
1530,1631283.681171173
2,4, 1, 4, 0,17, 0.00,60.00,Wednesday
12,206785447.2695242
60,100992025.53648001
281,66792528.532079995
1113,23547969.53267147
1212,9925723.668278147
1262,1631383.7237603648
1286,0.0
1312,0.0
1530,1631383.7237603648
2,4, 1, 4, 0,18, 0.00,60.00,Wednesday
12,129588086.11404075
60,56106680.85360001
281,37106960.295600004
1113,23547969.53267147
1212,4535675.432154768
1262,1631241.9793001008
1286,0.0
1312,0.0
1530,1631241.9793001008
2,4, 1, 4, 0,19, 0.00,60.00,Wednesday
12,96758491.17305698
60,33664008.512159996
281,29685568.236480005
1113,23547969.53267147
1212,1570144.8917309623
1262,1631103.3893842585
1286,0.0
1312,0.0
1530,1631103.3893842585
2,4, 1, 4, 0,20, 0.00,60.00,Wednesday
12,96011098.47529438
60,33664008.512159996
281,29685568.236480005
1113,23547969.53267147
1212,822752.1939683633
1262,1631172.1262380069
1286,0.0
1312,0.0
1530,1631172.1262380069
2,4, 1, 4, 0,21, 0.00,60.00,Wednesday
12,84743255.09717016
60,22442672.34144
281,29685568.236480005
1113,23547969.53267147
1212,776244.9865641335
1262,1631138.1965757394
1286,0.0
1312,0.0
1530,1631138.1965757394
2,4, 1, 4, 0,22, 0.00,60.00,Wednesday
12,84741148.48032565
60,22442672.34144
281,29685568.236480005
1113,23547969.53267147
1212,774138.3697196315
1262,72000.0
1286,0.0
1312,0.0
1530,72000.0
2,4, 1, 4, 0,23, 0.00,60.00,Wednesday
12,49197704.407214545
60,11221336.17072
281,29685568.236480005
1113,0.0
1212,0.0
1262,1631097.912154969
1286,0.0
1312,0.0
1530,1631097.912154969
2,4, 1, 4, 0,24, 0.00,60.00,Wednesday
12,43587036.32185454
60,5610668.08536
281,29685568.236480005
1113,0.0
1212,0.0
1262,1631090.759310501
1286,0.0
1312,0.0
1530,1631090.759310501
2,5, 1, 5, 0, 1, 0.00,60.00,Thursday
12,43587036.32185454
60,5610668.08536
281,29685568.236480005
1113,0.0
1212,0.0
1262,72000.0
1286,0.0
1312,0.0
1530,72000.0
2,5, 1, 5, 0, 2, 0.00,60.00,Thursday
12,43587036.32185454
60,5610668.08536
281,29685568.236480005
1113,0.0
1212,0.0
1262,1631083.8039340656
1286,0.0
1312,0.0
1530,1631083.8039340656
2,5, 1, 5, 0, 3, 0.00,60.00,Thursday
12,43587036.32185454
60,5610668.08536
281,29685568.236480005
1113,0.0
1212,0.0
1262,1631076.734363186
1286,0.0
1312,0.0
1530,1631076.734363186
2,5, 1, 5, 0, 4, 0.00,60.00,Thursday
12,43587036.32185454
60,5610668.08536
281,29685568.236480005
1113,0.0
1212,0.0
1262,72000.0
1286,0.0
1312,0.0
1530,72000.0
2,5, 1, 5, 0, 5, 0.00,60.00,Thursday
12,43587036.32185454
60,5610668.08536
281,29685568.236480005
1113,0.0
1212,0.0
1262,1631084.0285448027
1286,0.0
1312,0.0
1530,1631084.0285448027
2,5, 1, 5, 0, 6, 0.00,60.00,Thursday
12,49197704.407214545
60,11221336.17072
281,29685568.236480005
1113,0.0
1212,0.0
1262,1631128.470236864
1286,0.0
1312,0.0
1530,1631128.470236864
2,5, 1, 5, 0, 7, 0.00,60.00,Thursday
12,73893567.70593579
60,11221336.17072
281,29685568.236480005
1113,23547969.53267147
1212,1147893.766049766
1262,2663281.5720914113
1286,2591281.5720914113
1312,0.0
1530,72000.0
2,5, 1, 5, 0, 8, 0.00,60.00,Thursday
12,90119850.33434239
60,33664008.512159996
281,29685568.236480005
1113,23547969.53267147
1212,458704.0530163777
1262,18170873.532164335
1286,16539655.023685263
1312,0.0
1530,1631218.508479072
2,5, 1, 5, 0, 9, 0.00,60.00,Thursday
12,193012493.00809386
60,100992025.53648001
281,66792528.532079995
1113,23547969.53267147
1212,1679969.4068478204
1262,2306303.84281822
1286,674935.6564857226
1312,0.0
1530,1631368.1863324975
2,5, 1, 5, 0,10, 0.00,60.00,Thursday
12,195602875.26137078
60,100992025.53648001
281,66792528.532079995
1113,23547969.53267147
1212,4270351.660124758
1262,1631372.8224011108
1286,0.0
1312,0.0
1530,1631372.8224011108
2,5, 1, 5, 0,11, 0.00,60.00,Thursday
12,197599839.65471196
60,100992025.53648001
281,66792528.532079995
1113,23547969.53267147
1212,6267316.053465927
1262,1631401.4179634398
1286,0.0
1312,0.0
1530,1631401.4179634398
2,5, 1, 5, 0,12, 0.00,60.00,Thursday
12,198830571.19390336
60,100992025.53648001
281,66792528.532079995
1113,23547969.53267147
1212,7498047.592657346
1262,3190879.6445812425
1286,0.0
1312,0.0
1530,3190879.6445812425
2,5, 1, 5, 0,13, 0.00,60.00,Thursday
12,191440960.03627127
60,100992025.53648001
281,59371136.47296001
1113,23547969.53267147
1212,7529828.494145264
1262,1631349.6494805904
1286,0.0
1312,0.0
1530,1631349.6494805904
2,5, 1, 5, 0,14, 0.00,60.00,Thursday
12,200376740.40863156
60,100992025.53648001
281,66792528.532079995
1113,23547969.53267147
1212,9044216.807385541
1262,1631461.0512241214
1286,0.0
1312,0.0
1530,1631461.0512241214
2,5, 1, 5, 0,15, 0.00,60.00,Thursday
12,201019398.4177189
60,100992025.53648001
281,66792528.532079995
1113,23547969.53267147
1212,9686874.816472856
1262,1631354.587606858
1286,0.0
1312,0.0
1530,1631354.587606858
2,5, 1, 5, 0,16, 0.00,60.00,Thursday
12,201018064.12725168
60,100992025.53648001
281,66792528.532079995
1113,23547969.53267147
1212,9685540.526005687
1262,1631316.2956505565
1286,0.0
1312,0.0
1530,1631316.2956505565
2,5, 1, 5, 0,17, 0.00,60.00,Thursday
12,206064366.5205131
60,100992025.53648001
281,66792528.532079995
1113,23547969.53267147
1212,9204642.919267105
1262,3190776.9952034187
1286,0.0
1312,0.0
1530,3190776.9952034187
2,5, 1, 5, 0,18, 0.00,60.00,Thursday
12,129043628.06317002
60,56106680.85360001
281,37106960.295600004
1113,23547969.53267147
1212,3991217.381284017
1262,1631163.3623201768
1286,0.0
1312,0.0
1530,1631163.3623201768
2,5, 1, 5, 0,19, 0.00,60.00,Thursday
12,96418138.90525366
60,33664008.512159996
281,29685568.236480005
1113,23547969.53267147
1212,1229792.6239276559
1262,72000.0
1286,0.0
1312,0.0
1530,72000.0
2,5, 1, 5, 0,20, 0.00,60.00,Thursday
12,95965961.3627383
60,33664008.512159996
281,29685568.236480005
1113,23547969.53267147
1212,777615.0814122665
1262,1631114.299718516
1286,0.0
1312,0.0
1530,1631114.299718516
2,5, 1, 5, 0,21, 0.00,60.00,Thursday
12,84690808.94899115
60,22442672.34144
281,29685568.236480005
1113,23547969.53267147
1212,723798.8383851252
1262,3132192.568861627
1286,1500994.8523641387
1312,0.0
1530,1631197.7164974886
2,5, 1, 5, 0,22, 0.00,60.00,Thursday
12,84686512.24928036
60,22442672.34144
281,29685568.236480005
1113,23547969.53267147
1212,719502.1386743293
1262,3090166.1932131606
1286,1459141.7489553401
1312,0.0
1530,1631024.444257821
2,5, 1, 5, 0,23, 0.00,60.00,Thursday
12,49197704.407214545
60,11221336.17072
281,29685568.236480005
1113,0.0
1212,0.0
1262,72000.0
1286,0.0
1312,0.0
1530,72000.0
2,5, 1, 5, 0,24, 0.00,60.00,Thursday
12,43587036.32185454
60,5610668.08536
281,29685568.236480005
1113,0.0
1212,0.0
1262,1631013.5931941033
1286,0.0
1312,0.0
1530,1631013.5931941033
2,6, 1, 6, 0, 1, 0.00,60.00,Friday
12,43587036.32185454
60,5610668.08536
281,29685568.236480005
1113,0.0
1212,0.0
1262,1631006.439544746
1286,0.0
1312,0.0
1530,1631006.439544746
2,6, 1, 6, 0, 2, 0.00,60.00,Friday
12,43587036.32185454
60,5610668.08536
281,29685568.236480005
1113,0.0
1212,0.0
1262,72000.0
1286,0.0
1312,0.0
1530,72000.0
2,6, 1, 6, 0, 3, 0.00,60.00,Friday
12,43587036.32185454
60,5610668.08536
281,29685568.236480005
1113,0.0
1212,0.0
1262,1631103.7355698762
1286,0.0
1312,0.0
1530,1631103.7355698762
2,6, 1, 6, 0, 4, 0.00,60.00,Friday
12,43587036.32185454
60,5610668.08536
281,29685568.236480005
1113,0.0
1212,0.0
1262,1631097.0096926214
1286,0.0
1312,0.0
1530,1631097.0096926214
2,6, 1, 6, 0, 5, 0.00,60.00,Friday
12,43587036.32185454
60,5610668.08536
281,29685568.236480005
1113,0.0
1212,0.0
1262,72000.0
1286,0.0
1312,0.0
1530,72000.0
2,6, 1, 6, 0, 6, 0.00,60.00,Friday
12,49197704.407214545
60,11221336.17072
281,29685568.236480005
1113,0.0
1212,0.0
1262,1631121.5052790665
1286,0.0
1312,0.0
1530,1631121.5052790665
2,6, 1, 6, 0, 7, 0.00,60.00,Friday
12,73697653.99144106
60,11221336.17072
281,29685568.236480005
1113,23547969.53267147
1212,951980.0515550385
1262,5572699.165850682
1286,3941653.5756054744
1312,0.0
1530,1631045.5902452078
2,6, 1, 6, 0, 8, 0.00,60.00,Friday
12,89975905.85113047
60,33664008.512159996
281,29685568.236480005
1113,23547969.53267147
1212,314759.5698044414
1262,22245885.04610013
1286,20614689.622244645
1312,0.0
1530,1631195.4238554838
2,6, 1, 6, 0, 9, 0.00,60.00,Friday
12,192827745.52400047
60,100992025.53648001
281,66792528.532079995
1113,23547969.53267147
1212,1495221.9227544263
1262,2190715.746541665
1286,559349.8640752649
1312,0.0
1530,1631365.8824664003
2,6, 1, 6, 0,10, 0.00,60.00,Friday
12,194817567.24278346
60,100992025.53648001
281,66792528.532079995
1113,23547969.53267147
1212,3485043.6415374232
1262,1631375.1027308607
1286,0.0
1312,0.0
1530,1631375.1027308607
2,6, 1, 6, 0,11, 0.00,60.00,Friday
12,196300724.56124163
60,100992025.53648001
281,66792528.532079995
1113,23547969.53267147
1212,4968200.959995619
1262,1631335.919957815
1286,0.0
1312,0.0
1530,1631335.919957815
2,6, 1, 6, 0,12, 0.00,60.00,Friday
12,196715781.2208339
60,100992025.53648001
281,66792528.532079995
1113,23547969.53267147
1212,5383257.619587854
1262,1631245.9793679484
1286,0.0
1312,0.0
1530,1631245.9793679484
2,6, 1, 6, 0,13, 0.00,60.00,Friday
12,188831510.41244608
60,100992025.53648001
281,59371136.47296001
1113,23547969.53267147
1212,4920378.870320048
1262,1631376.7980985467
1286,0.0
1312,0.0
1530,1631376.7980985467
2,6, 1, 6, 0,14, 0.00,60.00,Friday
12,197261338.57979086
60,100992025.53648001
281,66792528.532079995
1113,23547969.53267147
1212,5928814.978544849
1262,3190874.0425728373
1286,0.0
1312,0.0
1530,3190874.0425728373
2,6, 1, 6, 0,15, 0.00,60.00,Friday
12,197710905.37294692
60,100992025.53648001
281,66792528.532079995
1113,23547969.53267147
1212,6378381.771700906
1262,1631168.4833307215
1286,0.0
1312,0.0
1530,1631168.4833307215