Program Version,EnergyPlus, Version 25.1.0-68a4a7c774, YMD=2025.10.28 18:21
1,5,Environment Title[],Latitude[deg],Longitude[deg],Time Zone[],Elevation[m]
2,8,Day of Simulation[],Month[],Day of Month[],DST Indicator[1=yes 0=no],Hour[],StartMinute[],EndMinute[],DayType
3,5,Cumulative Day of Simulation[],Month[],Day of Month[],DST Indicator[1=yes 0=no],DayType  ! When Daily Meters Requested
4,2,Cumulative Days of Simulation[],Month[]  ! When Monthly Meters Requested
5,1,Cumulative Days of Simulation[] ! When Run Period Meters Requested
6,1,Calendar Year of Simulation[] ! When Annual Meters Requested
12,1,Electricity:Facility [J] !Hourly
1113,1,Fans:Electricity [J] !Hourly
1212,1,Cooling:Electricity [J] !Hourly
1312,1,Heating:Electricity [J] !Hourly
60,1,InteriorLights:Electricity [J] !Hourly
281,1,InteriorEquipment:Electricity [J] !Hourly
1262,1,NaturalGas:Facility [J] !Hourly
1286,1,Heating:NaturalGas [J] !Hourly
1530,1,Water Heater:WaterSystems:NaturalGas [J] !Hourly
14,9,Electricity:Facility [J] !Monthly [Value,Min,Day,Hour,Minute,Max,Day,Hour,Minute]
1264,9,NaturalGas:Facility [J] !Monthly [Value,Min,Day,Hour,Minute,Max,Day,Hour,Minute]
1360,9,Water:Facility [m3] !Monthly [Value,Min,Day,Hour,Minute,Max,Day,Hour,Minute]
462,9,EnergyTransfer:Facility [J] !Monthly [Value,Min,Day,Hour,Minute,Max,Day,Hour,Minute]
955,9,ElectricityPurchased:Facility [J] !Monthly [Value,Min,Day,Hour,Minute,Max,Day,Hour,Minute]
1004,9,ElectricitySurplusSold:Facility [J] !Monthly [Value,Min,Day,Hour,Minute,Max,Day,Hour,Minute]
1053,9,ElectricityNet:Facility [J] !Monthly [Value,Min,Day,Hour,Minute,Max,Day,Hour,Minute]
2287,9,Carbon Equivalent:Facility [kg] !Monthly [Value,Min,Day,Hour,Minute,Max,Day,Hour,Minute]
906,9,PlantLoopHeatingDemand:Facility [J] !Monthly [Value,Min,Day,Hour,Minute,Max,Day,Hour,Minute]
1409,9,MainsWater:Facility [m3] !Monthly [Value,Min,Day,Hour,Minute,Max,Day,Hour,Minute]
1965,9,WaterEnvironmentalFactors:Facility [L] !Monthly [Value,Min,Day,Hour,Minute,Max,Day,Hour,Minute]
1615,9,Source:Facility [J] !Monthly [Value,Min,Day,Hour,Minute,Max,Day,Hour,Minute]
1765,9,SO2:Facility [kg] !Monthly [Value,Min,Day,Hour,Minute,Max,Day,Hour,Minute]
1715,9,NOx:Facility [kg] !Monthly [Value,Min,Day,Hour,Minute,Max,Day,Hour,Minute]
1740,9,N2O:Facility [kg] !Monthly [Value,Min,Day,Hour,Minute,Max,Day,Hour,Minute]
1790,9,PM:Facility [kg] !Monthly [Value,Min,Day,Hour,Minute,Max,Day,Hour,Minute]
1840,9,PM2.5:Facility [kg] !Monthly [Value,Min,Day,Hour,Minute,Max,Day,Hour,Minute]
1815,9,PM10:Facility [kg] !Monthly [Value,Min,Day,Hour,Minute,Max,Day,Hour,Minute]
1665,9,CO:Facility [kg] !Monthly [Value,Min,Day,Hour,Minute,Max,Day,Hour,Minute]
1640,9,CO2:Facility [kg] !Monthly [Value,Min,Day,Hour,Minute,Max,Day,Hour,Minute]
1690,9,CH4:Facility [kg] !Monthly [Value,Min,Day,Hour,Minute,Max,Day,Hour,Minute]
1865,9,NH3:Facility [kg] !Monthly [Value,Min,Day,Hour,Minute,Max,Day,Hour,Minute]
1890,9,NMVOC:Facility [kg] !Monthly [Value,Min,Day,Hour,Minute,Max,Day,Hour,Minute]
1915,9,Hg:Facility [kg] !Monthly [Value,Min,Day,Hour,Minute,Max,Day,Hour,Minute]
1940,9,Pb:Facility [kg] !Monthly [Value,Min,Day,Hour,Minute,Max,Day,Hour,Minute]
1990,9,Nuclear High:Facility [kg] !Monthly [Value,Min,Day,Hour,Minute,Max,Day,Hour,Minute]
2015,9,Nuclear Low:Facility [m3] !Monthly [Value,Min,Day,Hour,Minute,Max,Day,Hour,Minute]
End of Data Dictionary
1,ANNUAL,  41.98, -87.92,  -6.00, 201.00
2,1, 1, 1, 0, 1, 0.00,60.00,Holiday
12,48734902.49725454
60,6332933.491560001
281,34111169.00568
1113,0.0
1212,0.0
1262,72000.0
1286,0.0
1312,0.0
1530,72000.0
2,1, 1, 1, 0, 2, 0.00,60.00,Holiday
12,48734902.49725454
60,6332933.491560001
281,34111169.00568
1113,0.0
1212,0.0
1262,1631084.0613433796
1286,0.0
1312,0.0
1530,1631084.0613433796
2,1, 1, 1, 0, 3, 0.00,60.00,Holiday
12,48734902.49725454
60,6332933.491560001
281,34111169.00568
1113,0.0
1212,0.0
1262,72000.0
1286,0.0
1312,0.0
1530,72000.0
2,1, 1, 1, 0, 4, 0.00,60.00,Holiday
12,48734902.49725454
60,6332933.491560001
281,34111169.00568
1113,0.0
1212,0.0
1262,1631044.83184318
1286,0.0
1312,0.0
1530,1631044.83184318
2,1, 1, 1, 0, 5, 0.00,60.00,Holiday
12,48734902.49725454
60,6332933.491560001
281,34111169.00568
1113,0.0
1212,0.0
1262,1631017.9219451451
1286,0.0
1312,0.0
1530,1631017.9219451451
2,1, 1, 1, 0, 6, 0.00,60.00,Holiday
12,48734902.49725454
60,6332933.491560001
281,34111169.00568
1113,0.0
1212,0.0
1262,72000.0
1286,0.0
1312,0.0
1530,72000.0
2,1, 1, 1, 0, 7, 0.00,60.00,Holiday
12,48734902.49725454
60,6332933.491560001
281,34111169.00568
1113,0.0
1212,0.0
1262,1631030.86192308
1286,0.0
1312,0.0
1530,1631030.86192308
2,1, 1, 1, 0, 8, 0.00,60.00,Holiday
12,43207702.49725454
60,6332933.491560001
281,34111169.00568
1113,0.0
1212,0.0
1262,1631001.9957434756
1286,0.0
1312,0.0
1530,1631001.9957434756
2,1, 1, 1, 0, 9, 0.00,60.00,Holiday
12,40444102.49725454
60,6332933.491560001
281,34111169.00568
1113,0.0
1212,0.0
1262,72000.0
1286,0.0
1312,0.0
1530,72000.0
2,1, 1, 1, 0,10, 0.00,60.00,Holiday
12,40444102.49725454
60,6332933.491560001
281,34111169.00568
1113,0.0
1212,0.0
1262,1631096.8712055262
1286,0.0
1312,0.0
1530,1631096.8712055262
2,1, 1, 1, 0,11, 0.00,60.00,Holiday
12,40444102.49725454
60,6332933.491560001
281,34111169.00568
1113,0.0
1212,0.0
1262,1631101.7998689197
1286,0.0
1312,0.0
1530,1631101.7998689197
2,1, 1, 1, 0,12, 0.00,60.00,Holiday
12,40444102.49725454
60,6332933.491560001
281,34111169.00568
1113,0.0
1212,0.0
1262,72000.0
1286,0.0
1312,0.0
1530,72000.0
2,1, 1, 1, 0,13, 0.00,60.00,Holiday
12,40444102.49725454
60,6332933.491560001
281,34111169.00568
1113,0.0
1212,0.0
1262,1631069.4169715513
1286,0.0
1312,0.0
1530,1631069.4169715513
2,1, 1, 1, 0,14, 0.00,60.00,Holiday
12,40444102.49725454
60,6332933.491560001
281,34111169.00568
1113,0.0
1212,0.0
1262,1631130.2131402455
1286,0.0
1312,0.0
1530,1631130.2131402455
2,1, 1, 1, 0,15, 0.00,60.00,Holiday
12,40444102.49725454
60,6332933.491560001
281,34111169.00568
1113,0.0
1212,0.0
1262,72000.0
1286,0.0
1312,0.0
1530,72000.0
2,1, 1, 1, 0,16, 0.00,60.00,Holiday
12,40444102.49725454
60,6332933.491560001
281,34111169.00568
1113,0.0
1212,0.0
1262,1631007.796106263
1286,0.0
1312,0.0
1530,1631007.796106263
2,1, 1, 1, 0,17, 0.00,60.00,Holiday
12,45971302.49725454
60,6332933.491560001
281,34111169.00568
1113,0.0
1212,0.0
1262,1631092.1268897823
1286,0.0
1312,0.0
1530,1631092.1268897823
2,1, 1, 1, 0,18, 0.00,60.00,Holiday
12,48734902.49725454
60,6332933.491560001
281,34111169.00568
1113,0.0
1212,0.0
1262,72000.0
1286,0.0
1312,0.0
1530,72000.0
2,1, 1, 1, 0,19, 0.00,60.00,Holiday
12,48734902.49725454
60,6332933.491560001
281,34111169.00568
1113,0.0
1212,0.0
1262,1631055.3719854685
1286,0.0
1312,0.0
1530,1631055.3719854685
2,1, 1, 1, 0,20, 0.00,60.00,Holiday
12,48734902.49725454
60,6332933.491560001
281,34111169.00568
1113,0.0
1212,0.0
1262,1631028.6377857488
1286,0.0
1312,0.0
1530,1631028.6377857488
2,1, 1, 1, 0,21, 0.00,60.00,Holiday
12,48734902.49725454
60,6332933.491560001
281,34111169.00568
1113,0.0
1212,0.0
1262,72000.0
1286,0.0
1312,0.0
1530,72000.0
2,1, 1, 1, 0,22, 0.00,60.00,Holiday
12,48734902.49725454
60,6332933.491560001
281,34111169.00568
1113,0.0
1212,0.0
1262,1631030.9771789259
1286,0.0
1312,0.0
1530,1631030.9771789259
2,1, 1, 1, 0,23, 0.00,60.00,Holiday
12,48734902.49725454
60,6332933.491560001
281,34111169.00568
1113,0.0
1212,0.0
1262,1631012.5070630459
1286,0.0
1312,0.0
1530,1631012.5070630459
2,1, 1, 1, 0,24, 0.00,60.00,Holiday
12,48734902.49725454
60,6332933.491560001
281,34111169.00568
1113,0.0
1212,0.0
1262,72000.0
1286,0.0
1312,0.0
1530,72000.0
2,2, 1, 2, 0, 1, 0.00,60.00,Monday
12,60105292.16581455
60,6332933.491560001
281,45481558.67424001
1113,0.0
1212,0.0
1262,1631099.5283406682
1286,0.0
1312,0.0
1530,1631099.5283406682
2,2, 1, 2, 0, 2, 0.00,60.00,Monday
12,60105292.16581455
60,6332933.491560001
281,45481558.67424001
1113,0.0
1212,0.0
1262,1631092.0177235294
1286,0.0
1312,0.0
1530,1631092.0177235294
2,2, 1, 2, 0, 3, 0.00,60.00,Monday
12,60105292.16581455
60,6332933.491560001
281,45481558.67424001
1113,0.0
1212,0.0
1262,72000.0
1286,0.0
1312,0.0
1530,72000.0
2,2, 1, 2, 0, 4, 0.00,60.00,Monday
12,60105292.16581455
60,6332933.491560001
281,45481558.67424001
1113,0.0
1212,0.0
1262,1631084.45237911
1286,0.0
1312,0.0
1530,1631084.45237911
2,2, 1, 2, 0, 5, 0.00,60.00,Monday
12,60105292.16581455
60,6332933.491560001
281,45481558.67424001
1113,0.0
1212,0.0
1262,1631076.8200953235
1286,0.0
1312,0.0
1530,1631076.8200953235
2,2, 1, 2, 0, 6, 0.00,60.00,Monday
12,66438225.65737455
60,12665866.983120002
281,45481558.67424001
1113,0.0
1212,0.0
1262,72000.0
1286,0.0
1312,0.0
1530,72000.0
2,2, 1, 2, 0, 7, 0.00,60.00,Monday
12,97431582.4699928
60,12665866.983120002
281,45481558.67424001
1113,29238905.469794106
1212,1754451.342824149
1262,2289165.85255958
1286,658144.0995457426
1312,0.0
1530,1631021.7530138374
2,2, 1, 2, 0, 8, 0.00,60.00,Monday
12,116477707.24802773
60,37997600.94936
281,45481558.67424001
1113,29238905.469794106
1212,996042.1546190548
1262,1995067.3165832488
1286,363954.8222068936
1312,0.0
1530,1631112.4943763553
2,2, 1, 2, 0, 9, 0.00,60.00,Monday
12,252712302.9526161
60,113992802.84808001
281,102333507.01704
1113,29238905.469794106
1212,7147087.617687462
1262,1631189.7218453165
1286,0.0
1312,0.0
1530,1631189.7218453165
2,2, 1, 2, 0,10, 0.00,60.00,Monday
12,256378020.1315772
60,113992802.84808001
281,102333507.01704
1113,29238905.469794106
1212,10812804.796648527
1262,1631318.3365589369
1286,0.0
1312,0.0
1530,1631318.3365589369
2,2, 1, 2, 0,11, 0.00,60.00,Monday
12,258380141.79869044
60,113992802.84808001
281,102333507.01704
1113,29238905.469794106
1212,12814926.4637618
1262,1631340.9395624842
1286,0.0
1312,0.0
1530,1631340.9395624842
2,2, 1, 2, 0,12, 0.00,60.00,Monday
12,259799257.6451432
60,113992802.84808001
281,102333507.01704
1113,29238905.469794106
1212,14234042.310214587
1262,1631462.9819501222
1286,0.0
1312,0.0
1530,1631462.9819501222
2,2, 1, 2, 0,13, 0.00,60.00,Monday
12,248037582.50334832
60,113992802.84808001
281,90963117.34848002
1113,29238905.469794106
1212,13842756.836979672
1262,3190943.6159114465
1286,0.0
1312,0.0
1530,3190943.6159114465
2,2, 1, 2, 0,14, 0.00,60.00,Monday
12,260823631.40234098
60,113992802.84808001
281,102333507.01704
1113,29238905.469794106
1212,15258416.067412343
1262,1631315.4481917913
1286,0.0
1312,0.0
1530,1631315.4481917913
2,2, 1, 2, 0,15, 0.00,60.00,Monday
12,260908243.05897322
60,113992802.84808001
281,102333507.01704
1113,29238905.469794106
1212,15343027.724044606
1262,1631354.138367803
1286,0.0
1312,0.0
1530,1631354.138367803
2,2, 1, 2, 0,16, 0.00,60.00,Monday
12,261458031.8752329
60,113992802.84808001
281,102333507.01704
1113,29238905.469794106
1212,15892816.540304301
1262,1631309.1022001228
1286,0.0
1312,0.0
1530,1631309.1022001228
2,2, 1, 2, 0,17, 0.00,60.00,Monday
12,267456870.04951623
60,113992802.84808001
281,102333507.01704
1113,29238905.469794106
1212,16364454.714587629
1262,1631395.808869999
1286,0.0
1312,0.0
1530,1631395.808869999
2,2, 1, 2, 0,18, 0.00,60.00,Monday
12,166953609.41866186
60,63329334.91560002
281,56851948.342800006
1113,29238905.469794106
1212,9242620.69045319
1262,1631177.4344002472
1286,0.0
1312,0.0
1530,1631177.4344002472
2,2, 1, 2, 0,19, 0.00,60.00,Monday
12,126825316.67802678
60,37997600.94936
281,45481558.67424001
1113,29238905.469794106
1212,5816451.5846181465
1262,1631216.2100221636
1286,0.0
1312,0.0
1530,1631216.2100221636
2,2, 1, 2, 0,20, 0.00,60.00,Monday
12,126162416.9043513
60,37997600.94936
281,45481558.67424001
1113,29238905.469794106
1212,5153551.810942638
1262,1631146.744770168
1286,0.0
1312,0.0
1530,1631146.744770168
2,2, 1, 2, 0,21, 0.00,60.00,Monday
12,112682363.13375603
60,25331733.966240004
281,45481558.67424001
1113,29238905.469794106
1212,4339365.023467376
1262,1631106.443083215
1286,0.0
1312,0.0
1530,1631106.443083215
2,2, 1, 2, 0,22, 0.00,60.00,Monday
12,112411921.83334209
60,25331733.966240004
281,45481558.67424001
1113,29238905.469794106
1212,4068923.7230534344
1262,72000.0
1286,0.0
1312,0.0
1530,72000.0
2,2, 1, 2, 0,23, 0.00,60.00,Monday
12,66438225.65737455
60,12665866.983120002
281,45481558.67424001
1113,0.0
1212,0.0
1262,1631103.4819127563
1286,0.0
1312,0.0
1530,1631103.4819127563
2,2, 1, 2, 0,24, 0.00,60.00,Monday
12,60105292.16581455
60,6332933.491560001
281,45481558.67424001
1113,0.0
1212,0.0
1262,1631086.048499191
1286,0.0
1312,0.0
1530,1631086.048499191
2,3, 1, 3, 0, 1, 0.00,60.00,Tuesday
12,60105292.16581455
60,6332933.491560001
281,45481558.67424001
1113,0.0
1212,0.0
1262,72000.0
1286,0.0
1312,0.0
1530,72000.0
2,3, 1, 3, 0, 2, 0.00,60.00,Tuesday
12,60105292.16581455
60,6332933.491560001
281,45481558.67424001
1113,0.0
1212,0.0
1262,1631078.666966711
1286,0.0
1312,0.0
1530,1631078.666966711
2,3, 1, 3, 0, 3, 0.00,60.00,Tuesday
12,60105292.16581455
60,6332933.491560001
281,45481558.67424001
1113,0.0
1212,0.0
1262,1631071.1870692084
1286,0.0
1312,0.0
1530,1631071.1870692084
2,3, 1, 3, 0, 4, 0.00,60.00,Tuesday
12,60105292.16581455
60,6332933.491560001
281,45481558.67424001
1113,0.0
1212,0.0
1262,72000.0
1286,0.0
1312,0.0
1530,72000.0
2,3, 1, 3, 0, 5, 0.00,60.00,Tuesday
12,60105292.16581455
60,6332933.491560001
281,45481558.67424001
1113,0.0
1212,0.0
1262,1631063.6618722319
1286,0.0
1312,0.0
1530,1631063.6618722319
2,3, 1, 3, 0, 6, 0.00,60.00,Tuesday
12,66438225.65737455
60,12665866.983120002
281,45481558.67424001
1113,0.0
1212,0.0
1262,1631105.8910351538
1286,0.0
1312,0.0
1530,1631105.8910351538
2,3, 1, 3, 0, 7, 0.00,60.00,Tuesday
12,100023055.45092496
60,12665866.983120002
281,45481558.67424001
1113,29238905.469794106
1212,4345924.323756296
1262,72000.0
1286,0.0
1312,0.0
1530,72000.0
2,3, 1, 3, 0, 8, 0.00,60.00,Tuesday
12,116944767.7856946
60,37997600.94936
281,45481558.67424001
1113,29238905.469794106
1212,1463102.6922859496
1262,1631108.7398934455
1286,0.0
1312,0.0
1530,1631108.7398934455
2,3, 1, 3, 0, 9, 0.00,60.00,Tuesday
12,255648017.5255678
60,113992802.84808001
281,102333507.01704
1113,29238905.469794106
1212,10082802.190639224
1262,1631270.8520244039
1286,0.0
1312,0.0
1530,1631270.8520244039
2,3, 1, 3, 0,10, 0.00,60.00,Tuesday
12,258035144.62841362
60,113992802.84808001
281,102333507.01704
1113,29238905.469794106
1212,12469929.293484986
1262,1631370.2851907816
1286,0.0
1312,0.0
1530,1631370.2851907816
2,3, 1, 3, 0,11, 0.00,60.00,Tuesday
12,259324194.42111802
60,113992802.84808001
281,102333507.01704
1113,29238905.469794106
1212,13758979.086189425
1262,3190498.6346235406
1286,0.0
1312,0.0
1530,3190498.6346235406
2,3, 1, 3, 0,12, 0.00,60.00,Tuesday
12,260206874.9030252
60,113992802.84808001
281,102333507.01704
1113,29238905.469794106
1212,14641659.568096608
1262,1631274.6207452111
1286,0.0
1312,0.0
1530,1631274.6207452111
2,3, 1, 3, 0,13, 0.00,60.00,Tuesday
12,248269418.41517827
60,113992802.84808001
281,90963117.34848002
1113,29238905.469794106
1212,14074592.748809617
1262,1631452.4221064253
1286,0.0
1312,0.0
1530,1631452.4221064253
2,3, 1, 3, 0,14, 0.00,60.00,Tuesday
12,261224159.10626638
60,113992802.84808001
281,102333507.01704
1113,29238905.469794106
1212,15658943.77133774
1262,1631310.2779354216
1286,0.0
1312,0.0
1530,1631310.2779354216
2,3, 1, 3, 0,15, 0.00,60.00,Tuesday
12,261549511.4502836
60,113992802.84808001
281,102333507.01704
1113,29238905.469794106
1212,15984296.115354976
1262,1631269.7645221555
1286,0.0
1312,0.0
1530,1631269.7645221555
2,3, 1, 3, 0,16, 0.00,60.00,Tuesday
12,261705805.8198752
60,113992802.84808001
281,102333507.01704
1113,29238905.469794106
1212,16140590.484946625
1262,1631303.253573034
1286,0.0
1312,0.0
1530,1631303.253573034
2,3, 1, 3, 0,17, 0.00,60.00,Tuesday
12,267238324.87574348
60,113992802.84808001
281,102333507.01704
1113,29238905.469794106
1212,16145909.540814854
1262,3190845.590215792
1286,0.0
1312,0.0
1530,3190845.590215792
2,3, 1, 3, 0,18, 0.00,60.00,Tuesday
12,167024557.84599155
60,63329334.91560002
281,56851948.342800006
1113,29238905.469794106
1212,9313569.117782872
1262,1631246.9363107707
1286,0.0
1312,0.0
1530,1631246.9363107707
2,3, 1, 3, 0,19, 0.00,60.00,Tuesday
12,126726906.52705994
60,37997600.94936
281,45481558.67424001
1113,29238905.469794106
1212,5718041.43365129
1262,72000.0
1286,0.0
1312,0.0
1530,72000.0
2,3, 1, 3, 0,20, 0.00,60.00,Tuesday
12,125750866.23570696
60,37997600.94936
281,45481558.67424001
1113,29238905.469794106
1212,4742001.142298302
1262,1631192.436746257
1286,0.0
1312,0.0
1530,1631192.436746257
2,3, 1, 3, 0,21, 0.00,60.00,Tuesday
12,112051360.88975893
60,25331733.966240004
281,45481558.67424001
1113,29238905.469794106
1212,3708362.7794702705
1262,1631136.482092254
1286,0.0
1312,0.0
1530,1631136.482092254
2,3, 1, 3, 0,22, 0.00,60.00,Tuesday
12,111529624.27548088
60,25331733.966240004
281,45481558.67424001
1113,29238905.469794106
1212,3186626.165192232
1262,1631098.5063116401
1286,0.0
1312,0.0
1530,1631098.5063116401
2,3, 1, 3, 0,23, 0.00,60.00,Tuesday
12,66438225.65737455
60,12665866.983120002
281,45481558.67424001
1113,0.0
1212,0.0
1262,72000.0
1286,0.0
1312,0.0
1530,72000.0
2,3, 1, 3, 0,24, 0.00,60.00,Tuesday
12,60105292.16581455
60,6332933.491560001
281,45481558.67424001
1113,0.0
1212,0.0
1262,1631085.1209256218
1286,0.0
1312,0.0
1530,1631085.1209256218
2,4, 1, 4, 0, 1, 0.00,60.00,Wednesday
12,60105292.16581455
60,6332933.491560001
281,45481558.67424001
1113,0.0
1212,0.0
1262,1631077.84007615
1286,0.0
1312,0.0
1530,1631077.84007615
2,4, 1, 4, 0, 2, 0.00,60.00,Wednesday
12,60105292.16581455
60,6332933.491560001
281,45481558.67424001
1113,0.0
1212,0.0
1262,72000.0
1286,0.0
1312,0.0
1530,72000.0
2,4, 1, 4, 0, 3, 0.00,60.00,Wednesday
12,60105292.16581455
60,6332933.491560001
281,45481558.67424001
1113,0.0
1212,0.0
1262,1631070.5466970298
1286,0.0
1312,0.0
1530,1631070.5466970298
2,4, 1, 4, 0, 4, 0.00,60.00,Wednesday
12,60105292.16581455
60,6332933.491560001
281,45481558.67424001
1113,0.0
1212,0.0
1262,1631063.206929076
1286,0.0
1312,0.0
1530,1631063.206929076
2,4, 1, 4, 0, 5, 0.00,60.00,Wednesday
12,60105292.16581455
60,6332933.491560001
281,45481558.67424001
1113,0.0
1212,0.0
1262,72000.0
1286,0.0
1312,0.0
1530,72000.0
2,4, 1, 4, 0, 6, 0.00,60.00,Wednesday
12,66438225.65737455
60,12665866.983120002
281,45481558.67424001
1113,0.0
1212,0.0
1262,1631077.9668318306
1286,0.0
1312,0.0
1530,1631077.9668318306
2,4, 1, 4, 0, 7, 0.00,60.00,Wednesday
12,99839506.15563995
60,12665866.983120002
281,45481558.67424001
1113,29238905.469794106
1212,4162375.02847129
1262,1631114.97603331
1286,0.0
1312,0.0
1530,1631114.97603331
2,4, 1, 4, 0, 8, 0.00,60.00,Wednesday
12,116976377.52244568
60,37997600.94936
281,45481558.67424001
1113,29238905.469794106
1212,1494712.4290370408
1262,1631123.3208813078
1286,0.0
1312,0.0
1530,1631123.3208813078
2,4, 1, 4, 0, 9, 0.00,60.00,Wednesday
12,256031403.59119034
60,113992802.84808001
281,102333507.01704
1113,29238905.469794106
1212,10466188.256261691
1262,1631242.213908503
1286,0.0
1312,0.0
1530,1631242.213908503
2,4, 1, 4, 0,10, 0.00,60.00,Wednesday
12,258737297.7572583
60,113992802.84808001
281,102333507.01704
1113,29238905.469794106
1212,13172082.422329646
1262,1631373.5359070997
1286,0.0
1312,0.0
1530,1631373.5359070997
2,4, 1, 4, 0,11, 0.00,60.00,Wednesday
12,260050403.94531086
60,113992802.84808001
281,102333507.01704
1113,29238905.469794106
1212,14485188.610382231
1262,1631400.118152842
1286,0.0
1312,0.0
1530,1631400.118152842
2,4, 1, 4, 0,12, 0.00,60.00,Wednesday
12,260929350.99804574
60,113992802.84808001
281,102333507.01704
1113,29238905.469794106
1212,15364135.663117139
1262,1631318.4951070687
1286,0.0
1312,0.0
1530,1631318.4951070687
2,4, 1, 4, 0,13, 0.00,60.00,Wednesday
12,249015253.37926498
60,113992802.84808001
281,90963117.34848002
1113,29238905.469794106
1212,14820427.712896364
1262,3190785.3314576605
1286,0.0
1312,0.0
1530,3190785.3314576605
2,4, 1, 4, 0,14, 0.00,60.00,Wednesday
12,261992761.51918095
60,113992802.84808001
281,102333507.01704
1113,29238905.469794106
1212,16427546.18425235
1262,1631433.0596168668
1286,0.0
1312,0.0
1530,1631433.0596168668
2,4, 1, 4, 0,15, 0.00,60.00,Wednesday
12,262207121.84952283
60,113992802.84808001
281,102333507.01704
1113,29238905.469794106
1212,16641906.514594179
1262,1631229.8301038966
1286,0.0
1312,0.0
1530,1631229.8301038966
2,4, 1, 4, 0,16, 0.00,60.00,Wednesday
12,262241743.2199258
60,113992802.84808001
281,102333507.01704
1113,29238905.469794106
1212,16676527.884997208
1262,1631283.7765148133
1286,0.0
1312,0.0
1530,1631283.7765148133
2,4, 1, 4, 0,17, 0.00,60.00,Wednesday
12,267368196.45110762
60,113992802.84808001
281,102333507.01704
1113,29238905.469794106
1212,16275781.11617904
1262,1631383.8259986402
1286,0.0
1312,0.0
1530,1631383.8259986402
2,4, 1, 4, 0,18, 0.00,60.00,Wednesday
12,166655225.54694822
60,63329334.91560002
281,56851948.342800006
1113,29238905.469794106
1212,8944236.818739558
1262,1631242.0741056206
1286,0.0
1312,0.0
1530,1631242.0741056206
2,4, 1, 4, 0,19, 0.00,60.00,Wednesday
12,126096436.26236609
60,37997600.94936
281,45481558.67424001
1113,29238905.469794106
1212,5087571.168957444
1262,1631103.4978199317
1286,0.0
1312,0.0
1530,1631103.4978199317
2,4, 1, 4, 0,20, 0.00,60.00,Wednesday
12,125014795.03988114
60,37997600.94936
281,45481558.67424001
1113,29238905.469794106
1212,4005929.9464724837
1262,1631172.228176501
1286,0.0
1312,0.0
1530,1631172.228176501
2,4, 1, 4, 0,21, 0.00,60.00,Wednesday
12,111408890.95905952
60,25331733.966240004
281,45481558.67424001
1113,29238905.469794106
1212,3065892.848770875
1262,1631138.2953484254
1286,0.0
1312,0.0
1530,1631138.2953484254
2,4, 1, 4, 0,22, 0.00,60.00,Wednesday
12,110875900.51120031
60,25331733.966240004
281,45481558.67424001
1113,29238905.469794106
1212,2532902.400911688
1262,72000.0
1286,0.0
1312,0.0
1530,72000.0
2,4, 1, 4, 0,23, 0.00,60.00,Wednesday
12,66438225.65737455
60,12665866.983120002
281,45481558.67424001
1113,0.0
1212,0.0
1262,1631098.0071735359
1286,0.0
1312,0.0
1530,1631098.0071735359
2,4, 1, 4, 0,24, 0.00,60.00,Wednesday
12,60105292.16581455
60,6332933.491560001
281,45481558.67424001
1113,0.0
1212,0.0
1262,1631090.8533102511
1286,0.0
1312,0.0
1530,1631090.8533102511
2,5, 1, 5, 0, 1, 0.00,60.00,Thursday
12,60105292.16581455
60,6332933.491560001
281,45481558.67424001
1113,0.0
1212,0.0
1262,72000.0
1286,0.0
1312,0.0
1530,72000.0
2,5, 1, 5, 0, 2, 0.00,60.00,Thursday
12,60105292.16581455
60,6332933.491560001
281,45481558.67424001
1113,0.0
1212,0.0
1262,1631083.8986859673
1286,0.0
1312,0.0
1530,1631083.8986859673
2,5, 1, 5, 0, 3, 0.00,60.00,Thursday
12,60105292.16581455
60,6332933.491560001
281,45481558.67424001
1113,0.0
1212,0.0
1262,1631076.8284263015
1286,0.0
1312,0.0
1530,1631076.8284263015
2,5, 1, 5, 0, 4, 0.00,60.00,Thursday
12,60105292.16581455
60,6332933.491560001
281,45481558.67424001
1113,0.0
1212,0.0
1262,72000.0
1286,0.0
1312,0.0
1530,72000.0
2,5, 1, 5, 0, 5, 0.00,60.00,Thursday
12,60105292.16581455
60,6332933.491560001
281,45481558.67424001
1113,0.0
1212,0.0
1262,1631084.1020736801
1286,0.0
1312,0.0
1530,1631084.1020736801
2,5, 1, 5, 0, 6, 0.00,60.00,Thursday
12,66438225.65737455
60,12665866.983120002
281,45481558.67424001
1113,0.0
1212,0.0
1262,1631128.5440055751
1286,0.0
1312,0.0
1530,1631128.5440055751
2,5, 1, 5, 0, 7, 0.00,60.00,Thursday
12,98014829.6519867
60,12665866.983120002
281,45481558.67424001
1113,29238905.46979411
1212,2337698.5248180414
1262,1047282.6362125573
1286,975282.6362125573
1312,0.0
1530,72000.0
2,5, 1, 5, 0, 8, 0.00,60.00,Thursday
12,116223856.31760347
60,37997600.94936
281,45481558.67424001
1113,29238905.469794106
1212,742191.2241948177
1262,8822039.971374031
1286,7190817.517090419
1312,0.0
1530,1631222.454283612
2,5, 1, 5, 0, 9, 0.00,60.00,Thursday
12,252516920.27126345
60,113992802.84808001
281,102333507.01704
1113,29238905.469794106
1212,6951704.936334831
1262,1631361.440206204
1286,0.0
1312,0.0
1530,1631361.440206204
2,5, 1, 5, 0,10, 0.00,60.00,Thursday
12,256164197.2658868
60,113992802.84808001
281,102333507.01704
1113,29238905.469794106
1212,10598981.930958185
1262,1631372.876781637
1286,0.0
1312,0.0
1530,1631372.876781637
2,5, 1, 5, 0,11, 0.00,60.00,Thursday
12,258082957.29155633
60,113992802.84808001
281,102333507.01704
1113,29238905.469794106
1212,12517741.956627695
1262,1631401.4675882899
1286,0.0
1312,0.0
1530,1631401.4675882899
2,5, 1, 5, 0,12, 0.00,60.00,Thursday
12,259280145.67045057
60,113992802.84808001
281,102333507.01704
1113,29238905.469794106
1212,13714930.335521935
1262,3190879.748978995
1286,0.0
1312,0.0
1530,3190879.748978995
2,5, 1, 5, 0,13, 0.00,60.00,Thursday
12,247609742.40038246
60,113992802.84808001
281,90963117.34848002
1113,29238905.469794106
1212,13414916.73401383
1262,1631349.7122397146
1286,0.0
1312,0.0
1530,1631349.7122397146
2,5, 1, 5, 0,14, 0.00,60.00,Thursday
12,260789274.24202368
60,113992802.84808001
281,102333507.01704
1113,29238905.469794106
1212,15224058.907095056
1262,1631461.1167157078
1286,0.0
1312,0.0
1530,1631461.1167157078
2,5, 1, 5, 0,15, 0.00,60.00,Thursday
12,261504924.3822941
60,113992802.84808001
281,102333507.01704
1113,29238905.469794106
1212,15939709.04736545
1262,1631354.6444546282
1286,0.0
1312,0.0
1530,1631354.6444546282
2,5, 1, 5, 0,16, 0.00,60.00,Thursday
12,261523461.08152443
60,113992802.84808001
281,102333507.01704
1113,29238905.469794106
1212,15958245.746595828
1262,1631316.3444845201
1286,0.0
1312,0.0
1530,1631316.3444845201
2,5, 1, 5, 0,17, 0.00,60.00,Thursday
12,266496343.98869634
60,113992802.84808001
281,102333507.01704
1113,29238905.469794106
1212,15403928.65376771
1262,3190777.12219554
1286,0.0
1312,0.0
1530,3190777.12219554
2,5, 1, 5, 0,18, 0.00,60.00,Thursday
12,166039866.04469198
60,63329334.91560002
281,56851948.342800006
1113,29238905.469794106
1212,8328877.316483294
1262,1631163.4204147626
1286,0.0
1312,0.0
1530,1631163.4204147626
2,5, 1, 5, 0,19, 0.00,60.00,Thursday
12,125686179.30842857
60,37997600.94936
281,45481558.67424001
1113,29238905.469794106
1212,4677314.215019899
1262,72000.0
1286,0.0
1312,0.0
1530,72000.0
2,5, 1, 5, 0,20, 0.00,60.00,Thursday
12,124502782.83617033
60,37997600.94936
281,45481558.67424001
1113,29238905.469794106
1212,3493917.742761696
1262,1631114.3531118152
1286,0.0
1312,0.0
1530,1631114.3531118152
2,5, 1, 5, 0,21, 0.00,60.00,Thursday
12,110594312.7511667
60,25331733.966240004
281,45481558.67424001
1113,29238905.469794106
1212,2251314.640878046
1262,1631197.7707831871
1286,0.0
1312,0.0
1530,1631197.7707831871
2,5, 1, 5, 0,22, 0.00,60.00,Thursday
12,109858537.84751269
60,25331733.966240004
281,45481558.67424001
1113,29238905.469794106
1212,1515539.7372240322
1262,1631024.4970812786
1286,0.0
1312,0.0
1530,1631024.4970812786
2,5, 1, 5, 0,23, 0.00,60.00,Thursday
12,66438225.65737455
60,12665866.983120002
281,45481558.67424001
1113,0.0
1212,0.0
1262,72000.0
1286,0.0
1312,0.0
1530,72000.0
2,5, 1, 5, 0,24, 0.00,60.00,Thursday
12,60105292.16581455
60,6332933.491560001
281,45481558.67424001
1113,0.0
1212,0.0
1262,1631013.643185176
1286,0.0
1312,0.0
1530,1631013.643185176
2,6, 1, 6, 0, 1, 0.00,60.00,Friday
12,60105292.16581455
60,6332933.491560001
281,45481558.67424001
1113,0.0
1212,0.0
1262,1631006.4875281742
1286,0.0
1312,0.0
1530,1631006.4875281742
2,6, 1, 6, 0, 2, 0.00,60.00,Friday
12,60105292.16581455
60,6332933.491560001
281,45481558.67424001
1113,0.0
1212,0.0
1262,72000.0
1286,0.0
1312,0.0
1530,72000.0
2,6, 1, 6, 0, 3, 0.00,60.00,Friday
12,60105292.16581455
60,6332933.491560001
281,45481558.67424001
1113,0.0
1212,0.0
1262,1631103.7836031227
1286,0.0
1312,0.0
1530,1631103.7836031227
2,6, 1, 6, 0, 4, 0.00,60.00,Friday
12,60105292.16581455
60,6332933.491560001
281,45481558.67424001
1113,0.0
1212,0.0
1262,1631097.0579803826
1286,0.0
1312,0.0
1530,1631097.0579803826
2,6, 1, 6, 0, 5, 0.00,60.00,Friday
12,60105292.16581455
60,6332933.491560001
281,45481558.67424001
1113,0.0
1212,0.0
1262,72000.0
1286,0.0
1312,0.0
1530,72000.0
2,6, 1, 6, 0, 6, 0.00,60.00,Friday
12,66438225.65737455
60,12665866.983120002
281,45481558.67424001
1113,0.0
1212,0.0
1262,1631121.552120442
1286,0.0
1312,0.0
1530,1631121.552120442
2,6, 1, 6, 0, 7, 0.00,60.00,Friday
12,97763300.71587129
60,12665866.983120002
281,45481558.67424001
1113,29238905.46979411
1212,2086169.5887026293
1262,2889681.4745968673
1286,1258635.6152373287
1312,0.0
1530,1631045.8593595389
2,6, 1, 6, 0, 8, 0.00,60.00,Friday
12,116179999.67008168
60,37997600.94936
281,45481558.67424001
1113,29238905.469794106
1212,698334.5766730241
1262,10120013.378872382
1286,8488817.90677977
1312,0.0
1530,1631195.4720926122
2,6, 1, 6, 0, 9, 0.00,60.00,Friday
12,251903652.12533495
60,113992802.84808001
281,102333507.01704
1113,29238905.469794106
1212,6338436.79040632
1262,1631365.9350892748
1286,0.0
1312,0.0
1530,1631365.9350892748
2,6, 1, 6, 0,10, 0.00,60.00,Friday
12,255414622.10783273
60,113992802.84808001
281,102333507.01704
1113,29238905.469794106
1212,9849406.772904139
1262,1631375.153339012
1286,0.0
1312,0.0
1530,1631375.153339012
2,6, 1, 6, 0,11, 0.00,60.00,Friday
12,256754657.88422704
60,113992802.84808001
281,102333507.01704
1113,29238905.469794106
1212,11189442.549298434
1262,1631335.9720104728
1286,0.0
1312,0.0
1530,1631335.9720104728
2,6, 1, 6, 0,12, 0.00,60.00,Friday
12,257067403.37287462
60,113992802.84808001
281,102333507.01704
1113,29238905.469794106
1212,11502188.037945988
1262,1631246.0420151495
1286,0.0
1312,0.0
1530,1631246.0420151495
2,6, 1, 6, 0,13, 0.00,60.00,Friday
12,244865478.64904213
60,113992802.84808001
281,90963117.34848002
1113,29238905.469794106
1212,10670652.98267353
1262,1631376.861551182
1286,0.0
1312,0.0
1530,1631376.861551182
2,6, 1, 6, 0,14, 0.00,60.00,Friday
12,257475109.08348948
60,113992802.84808001
281,102333507.01704
1113,29238905.469794106
1212,11909893.748560883
1262,3190874.1634948594
1286,0.0
1312,0.0
1530,3190874.1634948594
2,6, 1, 6, 0,15, 0.00,60.00,Friday
12,257934799.85232088
60,113992802.84808001
281,102333507.01704
1113,29238905.469794106
1212,12369584.517392252
1262,1631168.5440058466
1286,0.0
1312,0.0
1530,1631168.5440058466
2,6, 1, 6, 0,16, 0.00,60.00,Friday
12,258096036.49185973
60,113992802.84808001
281,102333507.01704
1113,29238905.469794106
1212,12530821.156931117
1262,1631209.636231431
1286,0.0
1312,0.0
1530,1631209.636231431