Program Version,EnergyPlus, Version 25.1.0-68a4a7c774, YMD=2025.10.28 18:22
1,5,Environment Title[],Latitude[deg],Longitude[deg],Time Zone[],Elevation[m]
2,8,Day of Simulation[],Month[],Day of Month[],DST Indicator[1=yes 0=no],Hour[],StartMinute[],EndMinute[],DayType
3,5,Cumulative Day of Simulation[],Month[],Day of Month[],DST Indicator[1=yes 0=no],DayType  ! When Daily Meters Requested
4,2,Cumulative Days of Simulation[],Month[]  ! When Monthly Meters Requested
5,1,Cumulative Days of Simulation[] ! When Run Period Meters Requested
6,1,Calendar Year of Simulation[] ! When Annual Meters Requested
12,1,Electricity:Facility [J] !Hourly
1113,1,Fans:Electricity [J] !Hourly
1212,1,Cooling:Electricity [J] !Hourly
1312,1,Heating:Electricity [J] !Hourly
60,1,InteriorLights:Electricity [J] !Hourly
281,1,InteriorEquipment:Electricity [J] !Hourly
1262,1,NaturalGas:Facility [J] !Hourly
1286,1,Heating:NaturalGas [J] !Hourly
1530,1,Water Heater:WaterSystems:NaturalGas [J] !Hourly
14,9,Electricity:Facility [J] !Monthly [Value,Min,Day,Hour,Minute,Max,Day,Hour,Minute]
1264,9,NaturalGas:Facility [J] !Monthly [Value,Min,Day,Hour,Minute,Max,Day,Hour,Minute]
1360,9,Water:Facility [m3] !Monthly [Value,Min,Day,Hour,Minute,Max,Day,Hour,Minute]
462,9,EnergyTransfer:Facility [J] !Monthly [Value,Min,Day,Hour,Minute,Max,Day,Hour,Minute]
955,9,ElectricityPurchased:Facility [J] !Monthly [Value,Min,Day,Hour,Minute,Max,Day,Hour,Minute]
1004,9,ElectricitySurplusSold:Facility [J] !Monthly [Value,Min,Day,Hour,Minute,Max,Day,Hour,Minute]
1053,9,ElectricityNet:Facility [J] !Monthly [Value,Min,Day,Hour,Minute,Max,Day,Hour,Minute]
2287,9,Carbon Equivalent:Facility [kg] !Monthly [Value,Min,Day,Hour,Minute,Max,Day,Hour,Minute]
906,9,PlantLoopHeatingDemand:Facility [J] !Monthly [Value,Min,Day,Hour,Minute,Max,Day,Hour,Minute]
1409,9,MainsWater:Facility [m3] !Monthly [Value,Min,Day,Hour,Minute,Max,Day,Hour,Minute]
1965,9,WaterEnvironmentalFactors:Facility [L] !Monthly [Value,Min,Day,Hour,Minute,Max,Day,Hour,Minute]
1615,9,Source:Facility [J] !Monthly [Value,Min,Day,Hour,Minute,Max,Day,Hour,Minute]
1765,9,SO2:Facility [kg] !Monthly [Value,Min,Day,Hour,Minute,Max,Day,Hour,Minute]
1715,9,NOx:Facility [kg] !Monthly [Value,Min,Day,Hour,Minute,Max,Day,Hour,Minute]
1740,9,N2O:Facility [kg] !Monthly [Value,Min,Day,Hour,Minute,Max,Day,Hour,Minute]
1790,9,PM:Facility [kg] !Monthly [Value,Min,Day,Hour,Minute,Max,Day,Hour,Minute]
1840,9,PM2.5:Facility [kg] !Monthly [Value,Min,Day,Hour,Minute,Max,Day,Hour,Minute]
1815,9,PM10:Facility [kg] !Monthly [Value,Min,Day,Hour,Minute,Max,Day,Hour,Minute]
1665,9,CO:Facility [kg] !Monthly [Value,Min,Day,Hour,Minute,Max,Day,Hour,Minute]
1640,9,CO2:Facility [kg] !Monthly [Value,Min,Day,Hour,Minute,Max,Day,Hour,Minute]
1690,9,CH4:Facility [kg] !Monthly [Value,Min,Day,Hour,Minute,Max,Day,Hour,Minute]
1865,9,NH3:Facility [kg] !Monthly [Value,Min,Day,Hour,Minute,Max,Day,Hour,Minute]
1890,9,NMVOC:Facility [kg] !Monthly [Value,Min,Day,Hour,Minute,Max,Day,Hour,Minute]
1915,9,Hg:Facility [kg] !Monthly [Value,Min,Day,Hour,Minute,Max,Day,Hour,Minute]
1940,9,Pb:Facility [kg] !Monthly [Value,Min,Day,Hour,Minute,Max,Day,Hour,Minute]
1990,9,Nuclear High:Facility [kg] !Monthly [Value,Min,Day,Hour,Minute,Max,Day,Hour,Minute]
2015,9,Nuclear Low:Facility [m3] !Monthly [Value,Min,Day,Hour,Minute,Max,Day,Hour,Minute]
End of Data Dictionary
1,ANNUAL,  41.98, -87.92,  -6.00, 201.00
2,1, 1, 1, 0, 1, 0.00,60.00,Holiday
12,75546130.44205455
60,8809797.789
281,58445532.653040014
1113,0.0
1212,0.0
1262,72000.0
1286,0.0
1312,0.0
1530,72000.0
2,1, 1, 1, 0, 2, 0.00,60.00,Holiday
12,75546130.44205455
60,8809797.789
281,58445532.653040014
1113,0.0
1212,0.0
1262,1631084.0613433796
1286,0.0
1312,0.0
1530,1631084.0613433796
2,1, 1, 1, 0, 3, 0.00,60.00,Holiday
12,75546130.44205455
60,8809797.789
281,58445532.653040014
1113,0.0
1212,0.0
1262,72000.0
1286,0.0
1312,0.0
1530,72000.0
2,1, 1, 1, 0, 4, 0.00,60.00,Holiday
12,75546130.44205455
60,8809797.789
281,58445532.653040014
1113,0.0
1212,0.0
1262,1631044.83184318
1286,0.0
1312,0.0
1530,1631044.83184318
2,1, 1, 1, 0, 5, 0.00,60.00,Holiday
12,75546130.44205455
60,8809797.789
281,58445532.653040014
1113,0.0
1212,0.0
1262,1631017.9219451451
1286,0.0
1312,0.0
1530,1631017.9219451451
2,1, 1, 1, 0, 6, 0.00,60.00,Holiday
12,75546130.44205455
60,8809797.789
281,58445532.653040014
1113,0.0
1212,0.0
1262,72000.0
1286,0.0
1312,0.0
1530,72000.0
2,1, 1, 1, 0, 7, 0.00,60.00,Holiday
12,75546130.44205455
60,8809797.789
281,58445532.653040014
1113,0.0
1212,0.0
1262,1631030.86192308
1286,0.0
1312,0.0
1530,1631030.86192308
2,1, 1, 1, 0, 8, 0.00,60.00,Holiday
12,70018930.44205455
60,8809797.789
281,58445532.653040014
1113,0.0
1212,0.0
1262,1631001.9957434756
1286,0.0
1312,0.0
1530,1631001.9957434756
2,1, 1, 1, 0, 9, 0.00,60.00,Holiday
12,67255330.44205455
60,8809797.789
281,58445532.653040014
1113,0.0
1212,0.0
1262,72000.0
1286,0.0
1312,0.0
1530,72000.0
2,1, 1, 1, 0,10, 0.00,60.00,Holiday
12,67255330.44205455
60,8809797.789
281,58445532.653040014
1113,0.0
1212,0.0
1262,1631096.8712055262
1286,0.0
1312,0.0
1530,1631096.8712055262
2,1, 1, 1, 0,11, 0.00,60.00,Holiday
12,67255330.44205455
60,8809797.789
281,58445532.653040014
1113,0.0
1212,0.0
1262,1631101.7998689197
1286,0.0
1312,0.0
1530,1631101.7998689197
2,1, 1, 1, 0,12, 0.00,60.00,Holiday
12,67255330.44205455
60,8809797.789
281,58445532.653040014
1113,0.0
1212,0.0
1262,72000.0
1286,0.0
1312,0.0
1530,72000.0
2,1, 1, 1, 0,13, 0.00,60.00,Holiday
12,67255330.44205455
60,8809797.789
281,58445532.653040014
1113,0.0
1212,0.0
1262,1631069.4169715513
1286,0.0
1312,0.0
1530,1631069.4169715513
2,1, 1, 1, 0,14, 0.00,60.00,Holiday
12,67255330.44205455
60,8809797.789
281,58445532.653040014
1113,0.0
1212,0.0
1262,1631130.2131402455
1286,0.0
1312,0.0
1530,1631130.2131402455
2,1, 1, 1, 0,15, 0.00,60.00,Holiday
12,67255330.44205455
60,8809797.789
281,58445532.653040014
1113,0.0
1212,0.0
1262,72000.0
1286,0.0
1312,0.0
1530,72000.0
2,1, 1, 1, 0,16, 0.00,60.00,Holiday
12,67255330.44205455
60,8809797.789
281,58445532.653040014
1113,0.0
1212,0.0
1262,1631007.796106263
1286,0.0
1312,0.0
1530,1631007.796106263
2,1, 1, 1, 0,17, 0.00,60.00,Holiday
12,72782530.44205455
60,8809797.789
281,58445532.653040014
1113,0.0
1212,0.0
1262,1631092.1268897823
1286,0.0
1312,0.0
1530,1631092.1268897823
2,1, 1, 1, 0,18, 0.00,60.00,Holiday
12,75546130.44205455
60,8809797.789
281,58445532.653040014
1113,0.0
1212,0.0
1262,72000.0
1286,0.0
1312,0.0
1530,72000.0
2,1, 1, 1, 0,19, 0.00,60.00,Holiday
12,75546130.44205455
60,8809797.789
281,58445532.653040014
1113,0.0
1212,0.0
1262,1631055.3719854685
1286,0.0
1312,0.0
1530,1631055.3719854685
2,1, 1, 1, 0,20, 0.00,60.00,Holiday
12,75546130.44205455
60,8809797.789
281,58445532.653040014
1113,0.0
1212,0.0
1262,1631028.6377857488
1286,0.0
1312,0.0
1530,1631028.6377857488
2,1, 1, 1, 0,21, 0.00,60.00,Holiday
12,75546130.44205455
60,8809797.789
281,58445532.653040014
1113,0.0
1212,0.0
1262,72000.0
1286,0.0
1312,0.0
1530,72000.0
2,1, 1, 1, 0,22, 0.00,60.00,Holiday
12,75546130.44205455
60,8809797.789
281,58445532.653040014
1113,0.0
1212,0.0
1262,1631030.9771789259
1286,0.0
1312,0.0
1530,1631030.9771789259
2,1, 1, 1, 0,23, 0.00,60.00,Holiday
12,75546130.44205455
60,8809797.789
281,58445532.653040014
1113,0.0
1212,0.0
1262,1631012.5070630459
1286,0.0
1312,0.0
1530,1631012.5070630459
2,1, 1, 1, 0,24, 0.00,60.00,Holiday
12,75546130.44205455
60,8809797.789
281,58445532.653040014
1113,0.0
1212,0.0
1262,72000.0
1286,0.0
1312,0.0
1530,72000.0
2,2, 1, 2, 0, 1, 0.00,60.00,Monday
12,95027974.65973456
60,8809797.789
281,77927376.87072001
1113,0.0
1212,0.0
1262,1631099.530786675
1286,0.0
1312,0.0
1530,1631099.530786675
2,2, 1, 2, 0, 2, 0.00,60.00,Monday
12,95027974.65973456
60,8809797.789
281,77927376.87072001
1113,0.0
1212,0.0
1262,1631092.0172545593
1286,0.0
1312,0.0
1530,1631092.0172545593
2,2, 1, 2, 0, 3, 0.00,60.00,Monday
12,95027974.65973456
60,8809797.789
281,77927376.87072001
1113,0.0
1212,0.0
1262,72000.0
1286,0.0
1312,0.0
1530,72000.0
2,2, 1, 2, 0, 4, 0.00,60.00,Monday
12,102116149.15909657
60,8809797.789
281,77927376.87072001
1113,6081810.687299954
1212,1006363.8120620527
1262,1631084.675325782
1286,0.0
1312,0.0
1530,1631084.675325782
2,2, 1, 2, 0, 5, 0.00,60.00,Monday
12,106934342.96126354
60,8809797.789
281,77927376.87072001
1113,10136351.145499924
1212,1770017.156029054
1262,1631077.031949754
1286,0.0
1312,0.0
1530,1631077.031949754
2,2, 1, 2, 0, 6, 0.00,60.00,Monday
12,113464246.96275698
60,17619595.578
281,77927376.87072001
1113,8109080.916399938
1212,1517393.5976224989
1262,72000.0
1286,0.0
1312,0.0
1530,72000.0
2,2, 1, 2, 0, 7, 0.00,60.00,Monday
12,158053700.48092312
60,17619595.578
281,77927376.87072001
1113,42889604.50827704
1212,11326323.523911512
1262,1631021.7248657804
1286,0.0
1312,0.0
1530,1631021.7248657804
2,2, 1, 2, 0, 8, 0.00,60.00,Monday
12,184552553.57271925
60,52858786.73400001
281,77927376.87072001
1113,42889604.50827704
1212,8113185.459707629
1262,1631112.4593649833
1286,0.0
1312,0.0
1530,1631112.4593649833
2,2, 1, 2, 0, 9, 0.00,60.00,Monday
12,399686007.6441839
60,158576360.20200002
281,175336597.95912
1113,42889604.50827704
1212,22883444.97477228
1262,1631189.6963001727
1286,0.0
1312,0.0
1530,1631189.6963001727
2,2, 1, 2, 0,10, 0.00,60.00,Monday
12,404161787.29451185
60,158576360.20200002
281,175336597.95912
1113,42889604.50827704
1212,27359224.62510019
1262,1631318.3181107657
1286,0.0
1312,0.0
1530,1631318.3181107657
2,2, 1, 2, 0,11, 0.00,60.00,Monday
12,406489098.17363787
60,158576360.20200002
281,175336597.95912
1113,42889604.50827704
1212,29686535.504226256
1262,1631340.913572719
1286,0.0
1312,0.0
1530,1631340.913572719
2,2, 1, 2, 0,12, 0.00,60.00,Monday
12,407950354.3455847
60,158576360.20200002
281,175336597.95912
1113,42889604.50827704
1212,31147791.67617302
1262,1631462.9564986525
1286,0.0
1312,0.0
1530,1631462.9564986525
2,2, 1, 2, 0,13, 0.00,60.00,Monday
12,387199204.30278677
60,158576360.20200002
281,155854753.74144003
1113,42889604.50827704
1212,29878485.851055153
1262,3190943.860702223
1286,0.0
1312,0.0
1530,3190943.860702223
2,2, 1, 2, 0,14, 0.00,60.00,Monday
12,408371687.42609715
60,158576360.20200002
281,175336597.95912
1113,42889604.50827704
1212,31569124.756685488
1262,1631315.4075921844
1286,0.0
1312,0.0
1530,1631315.4075921844
2,2, 1, 2, 0,15, 0.00,60.00,Monday
12,408150852.03015244
60,158576360.20200002
281,175336597.95912
1113,42889604.50827704
1212,31348289.360740818
1262,1631354.0975518792
1286,0.0
1312,0.0
1530,1631354.0975518792
2,2, 1, 2, 0,16, 0.00,60.00,Monday
12,408726559.8971403
60,158576360.20200002
281,175336597.95912
1113,42889604.50827704
1212,31923997.227728736
1262,1631309.0711120043
1286,0.0
1312,0.0
1530,1631309.0711120043
2,2, 1, 2, 0,17, 0.00,60.00,Monday
12,414769700.3557396
60,158576360.20200002
281,175336597.95912
1113,42889604.50827704
1212,32439937.686327897
1262,1631395.7762832565
1286,0.0
1312,0.0
1530,1631395.7762832565
2,2, 1, 2, 0,18, 0.00,60.00,Monday
12,257427799.9261337
60,88097977.89
281,97409221.08840002
1113,42889604.50827704
1212,20740196.439442124
1262,1631177.3964471626
1286,0.0
1312,0.0
1530,1631177.3964471626
2,2, 1, 2, 0,19, 0.00,60.00,Monday
12,196902699.86173406
60,52858786.73400001
281,77927376.87072001
1113,42889604.50827704
1212,14936131.74872245
1262,1631216.180999963
1286,0.0
1312,0.0
1530,1631216.180999963
2,2, 1, 2, 0,20, 0.00,60.00,Monday
12,195706691.09184843
60,52858786.73400001
281,77927376.87072001
1113,42889604.50827704
1212,13740122.978836797
1262,1631146.7177441765
1286,0.0
1312,0.0
1530,1631146.7177441765
2,2, 1, 2, 0,21, 0.00,60.00,Monday
12,176732229.20129007
60,35239191.156
281,77927376.87072001
1113,42889604.50827704
1212,12385256.666278463
1262,1631106.4082702657
1286,0.0
1312,0.0
1530,1631106.4082702657
2,2, 1, 2, 0,22, 0.00,60.00,Monday
12,176236540.22059122
60,35239191.156
281,77927376.87072001
1113,42889604.50827704
1212,11889567.685579611
1262,72000.0
1286,0.0
1312,0.0
1530,72000.0
2,2, 1, 2, 0,23, 0.00,60.00,Monday
12,124476465.75483878
60,17619595.578
281,77927376.87072001
1113,16938518.27993429
1212,3700175.026169938
1262,1631119.7246300697
1286,0.0
1312,0.0
1530,1631119.7246300697
2,2, 1, 2, 0,24, 0.00,60.00,Monday
12,122205219.42454438
60,8809797.789
281,77927376.87072001
1113,22449539.691305723
1212,4727705.07350411
1262,1631097.5321581545
1286,0.0
1312,0.0
1530,1631097.5321581545
2,3, 1, 3, 0, 1, 0.00,60.00,Tuesday
12,123291163.63484557
60,8809797.789
281,77927376.87072001
1113,23500566.598657187
1212,4762622.376453832
1262,72000.0
1286,0.0
1312,0.0
1530,72000.0
2,3, 1, 3, 0, 2, 0.00,60.00,Tuesday
12,118418363.47363782
60,8809797.789
281,77927376.87072001
1113,19371242.55485427
1212,4019146.259048999
1262,1631078.870062518
1286,0.0
1312,0.0
1530,1631078.870062518
2,3, 1, 3, 0, 3, 0.00,60.00,Tuesday
12,114806855.6695886
60,8809797.789
281,77927376.87072001
1113,16322969.399304558
1212,3455911.610549478
1262,1631118.1029171732
1286,0.0
1312,0.0
1530,1631118.1029171732
2,3, 1, 3, 0, 4, 0.00,60.00,Tuesday
12,112945457.26554362
60,8809797.789
281,77927376.87072001
1113,14730864.314523699
1212,3186618.2912853765
1262,72000.0
1286,0.0
1312,0.0
1530,72000.0
2,3, 1, 3, 0, 5, 0.00,60.00,Tuesday
12,105131226.20224173
60,8809797.789
281,77927376.87072001
1113,8109080.916399939
1212,1994170.6261072264
1262,1631113.7955194323
1286,0.0
1312,0.0
1530,1631113.7955194323
2,3, 1, 3, 0, 6, 0.00,60.00,Tuesday
12,121725986.88214284
60,17619595.578
281,77927376.87072001
1113,14776729.385830496
1212,3111485.0475778067
1262,1631106.3651656208
1286,0.0
1312,0.0
1530,1631106.3651656208
2,3, 1, 3, 0, 7, 0.00,60.00,Tuesday
12,160594787.46553376
60,17619595.578
281,77927376.87072001
1113,42889604.50827704
1212,13867410.50852216
1262,72000.0
1286,0.0
1312,0.0
1530,72000.0
2,3, 1, 3, 0, 8, 0.00,60.00,Tuesday
12,185854463.12426934
60,52858786.73400001
281,77927376.87072001
1113,42889604.50827704
1212,9415095.011257691
1262,1631108.9812609565
1286,0.0
1312,0.0
1530,1631108.9812609565
2,3, 1, 3, 0, 9, 0.00,60.00,Tuesday
12,400230437.1939
60,158576360.20200002
281,175336597.95912
1113,42889604.50827704
1212,23427874.524488382
1262,1631271.1035815657
1286,0.0
1312,0.0
1530,1631271.1035815657
2,3, 1, 3, 0,10, 0.00,60.00,Tuesday
12,403635240.048504
60,158576360.20200002
281,175336597.95912
1113,42889604.50827704
1212,26832677.379092366
1262,1631370.5361083762
1286,0.0
1312,0.0
1530,1631370.5361083762
2,3, 1, 3, 0,11, 0.00,60.00,Tuesday
12,405134481.706589
60,158576360.20200002
281,175336597.95912
1113,42889604.50827704
1212,28331919.037177328
1262,3190499.144991595
1286,0.0
1312,0.0
1530,3190499.144991595
2,3, 1, 3, 0,12, 0.00,60.00,Tuesday
12,406144355.2681221
60,158576360.20200002
281,175336597.95912
1113,42889604.50827704
1212,29341792.598710436
1262,1631274.8807334693
1286,0.0
1312,0.0
1530,1631274.8807334693
2,3, 1, 3, 0,13, 0.00,60.00,Tuesday
12,385492980.27732384
60,158576360.20200002
281,155854753.74144003
1113,42889604.50827704
1212,28172261.825592265
1262,1631452.6855310746
1286,0.0
1312,0.0
1530,1631452.6855310746
2,3, 1, 3, 0,14, 0.00,60.00,Tuesday
12,407215441.36265326
60,158576360.20200002
281,175336597.95912
1113,42889604.50827704
1212,30412878.693241574
1262,1631310.5460104141
1286,0.0
1312,0.0
1530,1631310.5460104141
2,3, 1, 3, 0,15, 0.00,60.00,Tuesday
12,407602862.7015525
60,158576360.20200002
281,175336597.95912
1113,42889604.50827704
1212,30800300.03214086
1262,1631270.0044419135
1286,0.0
1312,0.0
1530,1631270.0044419135
2,3, 1, 3, 0,16, 0.00,60.00,Tuesday
12,407766948.3497067
60,158576360.20200002
281,175336597.95912
1113,42889604.50827704
1212,30964385.68029505
1262,1631303.5011931504
1286,0.0
1312,0.0
1530,1631303.5011931504
2,3, 1, 3, 0,17, 0.00,60.00,Tuesday
12,413294277.46658427
60,158576360.20200002
281,175336597.95912
1113,42889604.50827704
1212,30964514.797172606
1262,3190846.0410039034
1286,0.0
1312,0.0
1530,3190846.0410039034
2,3, 1, 3, 0,18, 0.00,60.00,Tuesday
12,256666969.15860617
60,88097977.89
281,97409221.08840002
1113,42889604.50827704
1212,19979365.671914592
1262,1631247.1735164672
1286,0.0
1312,0.0
1530,1631247.1735164672
2,3, 1, 3, 0,19, 0.00,60.00,Tuesday
12,196132655.70649663
60,52858786.73400001
281,77927376.87072001
1113,42889604.50827704
1212,14166087.593485
1262,72000.0
1286,0.0
1312,0.0
1530,72000.0
2,3, 1, 3, 0,20, 0.00,60.00,Tuesday
12,194563374.10977548
60,52858786.73400001
281,77927376.87072001
1113,42889604.50827704
1212,12596805.99676384
1262,1631192.6639319365
1286,0.0
1312,0.0
1530,1631192.6639319365
2,3, 1, 3, 0,21, 0.00,60.00,Tuesday
12,175359998.59823036
60,35239191.156
281,77927376.87072001
1113,42889604.50827704
1212,11013026.063218744
1262,1631136.7226819973
1286,0.0
1312,0.0
1530,1631136.7226819973
2,3, 1, 3, 0,22, 0.00,60.00,Tuesday
12,174587990.56153685
60,35239191.156
281,77927376.87072001
1113,42889604.50827704
1212,10241018.026525237
1262,1631098.72541086
1286,0.0
1312,0.0
1530,1631098.72541086
2,3, 1, 3, 0,23, 0.00,60.00,Tuesday
12,119840987.77617119
60,17619595.578
281,77927376.87072001
1113,13247619.387613004
1212,2755595.9398236377
1262,72000.0
1286,0.0
1312,0.0
1530,72000.0
2,3, 1, 3, 0,24, 0.00,60.00,Tuesday
12,115779065.83592224
60,8809797.789
281,77927376.87072001
1113,17339428.94002299
1212,3411662.2361646937
1262,1631085.562940004
1286,0.0
1312,0.0
1530,1631085.562940004
2,4, 1, 4, 0, 1, 0.00,60.00,Wednesday
12,105079187.36375728
60,8809797.789
281,77927376.87072001
1113,8109080.916399939
1212,1942131.7876227982
1262,1631078.044843976
1286,0.0
1312,0.0
1530,1631078.044843976
2,4, 1, 4, 0, 2, 0.00,60.00,Wednesday
12,107412645.49212384
60,8809797.789
281,77927376.87072001
1113,10136351.145499922
1212,2248319.6868893635
1262,72000.0
1286,0.0
1312,0.0
1530,72000.0
2,4, 1, 4, 0, 3, 0.00,60.00,Wednesday
12,105041113.43680735
60,8809797.789
281,77927376.87072001
1113,8109080.916399939
1212,1904057.8606728544
1262,1631117.8215156337
1286,0.0
1312,0.0
1530,1631117.8215156337
2,4, 1, 4, 0, 4, 0.00,60.00,Wednesday
12,107349179.17287472
60,8809797.789
281,77927376.87072001
1113,10136351.145499922
1212,2184853.3676402466
1262,1631113.6448458466
1286,0.0
1312,0.0
1530,1631113.6448458466
2,4, 1, 4, 0, 5, 0.00,60.00,Wednesday
12,104976694.0235208
60,8809797.789
281,77927376.87072001
1113,8109080.916399939
1212,1839638.4473863174
1262,72000.0
1286,0.0
1312,0.0
1530,72000.0
2,4, 1, 4, 0, 6, 0.00,60.00,Wednesday
12,116203878.43436122
60,17619595.578
281,77927376.87072001
1113,10136351.145499922
1212,2229754.8401267626
1262,1631078.5910957695
1286,0.0
1312,0.0
1530,1631078.5910957695
2,4, 1, 4, 0, 7, 0.00,60.00,Wednesday
12,160356216.10677066
60,17619595.578
281,77927376.87072001
1113,42889604.50827704
1212,13628839.14975907
1262,1631115.3654823143
1286,0.0
1312,0.0
1530,1631115.3654823143
2,4, 1, 4, 0, 8, 0.00,60.00,Wednesday
12,185872819.87555107
60,52858786.73400001
281,77927376.87072001
1113,42889604.50827704
1212,9433451.762539474
1262,1631123.7517140636
1286,0.0
1312,0.0
1530,1631123.7517140636
2,4, 1, 4, 0, 9, 0.00,60.00,Wednesday
12,400726692.82095057
60,158576360.20200002
281,175336597.95912
1113,42889604.50827704
1212,23924130.15153896
1262,1631242.6663241012
1286,0.0
1312,0.0
1530,1631242.6663241012
2,4, 1, 4, 0,10, 0.00,60.00,Wednesday
12,404651800.8297939
60,158576360.20200002
281,175336597.95912
1113,42889604.50827704
1212,27849238.160382237
1262,1631373.9344257698
1286,0.0
1312,0.0
1530,1631373.9344257698
2,4, 1, 4, 0,11, 0.00,60.00,Wednesday
12,406199090.84672034
60,158576360.20200002
281,175336597.95912
1113,42889604.50827704
1212,29396528.177308712
1262,1631400.5158727278
1286,0.0
1312,0.0
1530,1631400.5158727278
2,4, 1, 4, 0,12, 0.00,60.00,Wednesday
12,407210475.4984769
60,158576360.20200002
281,175336597.95912
1113,42889604.50827704
1212,30407912.829065308
1262,1631318.960244887
1286,0.0
1312,0.0
1530,1631318.960244887
2,4, 1, 4, 0,13, 0.00,60.00,Wednesday
12,386600696.75240713
60,158576360.20200002
281,155854753.74144003
1113,42889604.50827704
1212,29279978.300675523
1262,3190786.276853431
1286,0.0
1312,0.0
1530,3190786.276853431
2,4, 1, 4, 0,14, 0.00,60.00,Wednesday
12,408377591.28810966
60,158576360.20200002
281,175336597.95912
1113,42889604.50827704
1212,31575028.61869799
1262,1631433.5266712336
1286,0.0
1312,0.0
1530,1631433.5266712336
2,4, 1, 4, 0,15, 0.00,60.00,Wednesday
12,408601039.3307774
60,158576360.20200002
281,175336597.95912
1113,42889604.50827704
1212,31798476.66136577
1262,1631230.285237423
1286,0.0
1312,0.0
1530,1631230.285237423
2,4, 1, 4, 0,16, 0.00,60.00,Wednesday
12,408604510.045659
60,158576360.20200002
281,175336597.95912
1113,42889604.50827704
1212,31801947.37624735
1262,1631284.177477493
1286,0.0
1312,0.0
1530,1631284.177477493
2,4, 1, 4, 0,17, 0.00,60.00,Wednesday
12,413537968.6295549
60,158576360.20200002
281,175336597.95912
1113,42889604.50827704
1212,31208205.960143276
1262,1631384.236655266
1286,0.0
1312,0.0
1530,1631384.236655266
2,4, 1, 4, 0,18, 0.00,60.00,Wednesday
12,256202778.0693804
60,88097977.89
281,97409221.08840002
1113,42889604.50827704
1212,19515174.582688842
1262,1631242.444889348
1286,0.0
1312,0.0
1530,1631242.444889348
2,4, 1, 4, 0,19, 0.00,60.00,Wednesday
12,195315358.2622276
60,52858786.73400001
281,77927376.87072001
1113,42889604.50827704
1212,13348790.149215963
1262,1631103.9261315342
1286,0.0
1312,0.0
1530,1631103.9261315342
2,4, 1, 4, 0,20, 0.00,60.00,Wednesday
12,193620151.2712073
60,52858786.73400001
281,77927376.87072001
1113,42889604.50827704
1212,11653583.158195654
1262,1631172.6331958186
1286,0.0
1312,0.0
1530,1631172.6331958186
2,4, 1, 4, 0,21, 0.00,60.00,Wednesday
12,174550387.4894361
60,35239191.156
281,77927376.87072001
1113,42889604.50827704
1212,10203414.95442448
1262,1631138.7111280498
1286,0.0
1312,0.0
1530,1631138.7111280498
2,4, 1, 4, 0,22, 0.00,60.00,Wednesday
12,173768378.3260198
60,35239191.156
281,77927376.87072001
1113,42889604.50827704
1212,9421405.791008143
1262,72000.0
1286,0.0
1312,0.0
1530,72000.0
2,4, 1, 4, 0,23, 0.00,60.00,Wednesday
12,113093048.23667024
60,17619595.578
281,77927376.87072001
1113,7602263.359124942
1212,1653012.4288107618
1262,1631098.620164876
1286,0.0
1312,0.0
1530,1631098.620164876
2,4, 1, 4, 0,24, 0.00,60.00,Wednesday
12,107252501.33146371
60,8809797.789
281,77927376.87072001
1113,10136351.145499922
1212,2088175.5262292256
1262,1631091.220117334
1286,0.0
1312,0.0
1530,1631091.220117334
2,5, 1, 5, 0, 1, 0.00,60.00,Thursday
12,104862112.80236797
60,8809797.789
281,77927376.87072001
1113,8109080.916399939
1212,1725057.2262334735
1262,72000.0
1286,0.0
1312,0.0
1530,72000.0
2,5, 1, 5, 0, 2, 0.00,60.00,Thursday
12,107181659.04431236
60,8809797.789
281,77927376.87072001
1113,10136351.145499922
1212,2017333.239077851
1262,1631109.0934847028
1286,0.0
1312,0.0
1530,1631109.0934847028
2,5, 1, 5, 0, 3, 0.00,60.00,Thursday
12,104820749.42840034
60,8809797.789
281,77927376.87072001
1113,8109080.916399939
1212,1683693.8522658367
1262,1631099.6973134256
1286,0.0
1312,0.0
1530,1631099.6973134256
2,5, 1, 5, 0, 4, 0.00,60.00,Thursday
12,107074409.37973097
60,8809797.789
281,77927376.87072001
1113,10136351.145499922
1212,1910083.5744964946
1262,72000.0
1286,0.0
1312,0.0
1530,72000.0
2,5, 1, 5, 0, 5, 0.00,60.00,Thursday
12,104645767.28232577
60,8809797.789
281,77927376.87072001
1113,8109080.916399939
1212,1508711.706191277
1262,1631085.0626279076
1286,0.0
1312,0.0
1530,1631085.0626279076
2,5, 1, 5, 0, 6, 0.00,60.00,Thursday
12,115762224.90959808
60,17619595.578
281,77927376.87072001
1113,10136351.145499922
1212,1788101.3153636015
1262,1631128.997547888
1286,0.0
1312,0.0
1530,1631128.997547888
2,5, 1, 5, 0, 7, 0.00,60.00,Thursday
12,157856046.96102756
60,17619595.578
281,77927376.87072001
1113,42889604.50827704
1212,11128670.004015956
1262,72000.0
1286,0.0
1312,0.0
1530,72000.0
2,5, 1, 5, 0, 8, 0.00,60.00,Thursday
12,182473065.72641963
60,52858786.73400001
281,77927376.87072001
1113,42889604.50827704
1212,6033697.6134080235
1262,1631157.3190603668
1286,0.0
1312,0.0
1530,1631157.3190603668
2,5, 1, 5, 0, 9, 0.00,60.00,Thursday
12,397021540.4538646
60,158576360.20200002
281,175336597.95912
1113,42889604.50827704
1212,20218977.784452986
1262,1631361.8936759317
1286,0.0
1312,0.0
1530,1631361.8936759317
2,5, 1, 5, 0,10, 0.00,60.00,Thursday
12,401328325.6025834
60,158576360.20200002
281,175336597.95912
1113,42889604.50827705
1212,24525762.93317181
1262,1631373.3665465435
1286,0.0
1312,0.0
1530,1631373.3665465435
2,5, 1, 5, 0,11, 0.00,60.00,Thursday
12,403359947.65930176
60,158576360.20200002
281,175336597.95912
1113,42889604.50827705
1212,26557384.989890195
1262,1631401.9352795375
1286,0.0
1312,0.0
1530,1631401.9352795375
2,5, 1, 5, 0,12, 0.00,60.00,Thursday
12,404645540.2425667
60,158576360.20200002
281,175336597.95912
1113,42889604.50827704
1212,27842977.573154993
1262,3190880.7590956693
1286,0.0
1312,0.0
1530,3190880.7590956693
2,5, 1, 5, 0,13, 0.00,60.00,Thursday
12,384283815.86546373
60,158576360.20200002
281,155854753.74144003
1113,42889604.50827704
1212,26963097.413732138
1262,1631350.3067784482
1286,0.0
1312,0.0
1530,1631350.3067784482
2,5, 1, 5, 0,14, 0.00,60.00,Thursday
12,406266659.72919446
60,158576360.20200002
281,175336597.95912
1113,42889604.50827704
1212,29464097.059782837
1262,1631461.6879880414
1286,0.0
1312,0.0
1530,1631461.6879880414
2,5, 1, 5, 0,15, 0.00,60.00,Thursday
12,407212183.332538
60,158576360.20200002
281,175336597.95912
1113,42889604.50827704
1212,30409620.663126342
1262,1631355.1918000372
1286,0.0
1312,0.0
1530,1631355.1918000372
2,5, 1, 5, 0,16, 0.00,60.00,Thursday
12,407371321.31989825
60,158576360.20200002
281,175336597.95912
1113,42889604.50827704
1212,30568758.650486596
1262,1631316.824308492
1286,0.0
1312,0.0
1530,1631316.824308492
2,5, 1, 5, 0,17, 0.00,60.00,Thursday
12,412258180.84642094
60,158576360.20200002
281,175336597.95912
1113,42889604.50827704
1212,29928418.17700937
1262,3190778.166997267
1286,0.0
1312,0.0
1530,3190778.166997267
2,5, 1, 5, 0,18, 0.00,60.00,Thursday
12,255371110.32265854
60,88097977.89
281,97409221.08840002
1113,42889604.50827704
1212,18683506.835966934
1262,1631163.9572574804
1286,0.0
1312,0.0
1530,1631163.9572574804
2,5, 1, 5, 0,19, 0.00,60.00,Thursday
12,194785616.5002098
60,52858786.73400001
281,77927376.87072001
1113,42889604.50827704
1212,12819048.387198195
1262,72000.0
1286,0.0
1312,0.0
1530,72000.0
2,5, 1, 5, 0,20, 0.00,60.00,Thursday
12,192995232.20338553
60,52858786.73400001
281,77927376.87072001
1113,42889604.50827704
1212,11028664.0903739
1262,1631114.8641433087
1286,0.0
1312,0.0
1530,1631114.8641433087
2,5, 1, 5, 0,21, 0.00,60.00,Thursday
12,173554902.87270576
60,35239191.156
281,77927376.87072001
1113,42889604.50827704
1212,9207930.337694136
1262,1631198.2688557955
1286,0.0
1312,0.0
1530,1631198.2688557955
2,5, 1, 5, 0,22, 0.00,60.00,Thursday
12,172558401.2385713
60,35239191.156
281,77927376.87072001
1113,42889604.50827704
1212,8211428.703559667
1262,1631024.9975850985
1286,0.0
1312,0.0
1530,1631024.9975850985
2,5, 1, 5, 0,23, 0.00,60.00,Thursday
12,112367756.82772262
60,17619595.578
281,77927376.87072001
1113,7095445.801849946
1212,1434538.577138136
1262,72000.0
1286,0.0
1312,0.0
1530,72000.0
2,5, 1, 5, 0,24, 0.00,60.00,Thursday
12,107101651.23729429
60,8809797.789
281,77927376.87072001
1113,10136351.145499922
1212,1937325.4320597989
1262,1631014.3269111945
1286,0.0
1312,0.0
1530,1631014.3269111945
2,6, 1, 6, 0, 1, 0.00,60.00,Friday
12,104687383.69184452
60,8809797.789
281,77927376.87072001
1113,8109080.916399939
1212,1550328.1157100308
1262,1631006.9658426677
1286,0.0
1312,0.0
1530,1631006.9658426677
2,6, 1, 6, 0, 2, 0.00,60.00,Friday
12,106969798.44707707
60,8809797.789
281,77927376.87072001
1113,10136351.145499922
1212,1805472.641842589
1262,72000.0
1286,0.0
1312,0.0
1530,72000.0
2,6, 1, 6, 0, 3, 0.00,60.00,Friday
12,104598501.66651553
60,8809797.789
281,77927376.87072001
1113,8109080.916399939
1212,1461446.090381027
1262,1631118.0237092178
1286,0.0
1312,0.0
1530,1631118.0237092178
2,6, 1, 6, 0, 4, 0.00,60.00,Friday
12,106847642.14292777
60,8809797.789
281,77927376.87072001
1113,10136351.145499922
1212,1683316.3376932885
1262,1631097.7502453611
1286,0.0
1312,0.0
1530,1631097.7502453611
2,6, 1, 6, 0, 5, 0.00,60.00,Friday
12,104492665.25667033
60,8809797.789
281,77927376.87072001
1113,8109080.916399939
1212,1355609.6805358091
1262,72000.0
1286,0.0
1312,0.0
1530,72000.0
2,6, 1, 6, 0, 6, 0.00,60.00,Friday
12,115651362.3153319
60,17619595.578
281,77927376.87072001
1113,10136351.145499922
1212,1677238.721097434
1262,1631122.0246036053
1286,0.0
1312,0.0
1530,1631122.0246036053
2,6, 1, 6, 0, 7, 0.00,60.00,Friday
12,157224831.62112507
60,17619595.578
281,77927376.87072001
1113,42889604.50827704
1212,10497454.66411347
1262,1631046.1122378781
1286,0.0
1312,0.0
1530,1631046.1122378781
2,6, 1, 6, 0, 8, 0.00,60.00,Friday
12,182006014.34760988
60,52858786.73400001
281,77927376.87072001
1113,42889604.50827704
1212,5566646.23459823
1262,1631195.975350422
1286,0.0
1312,0.0
1530,1631195.975350422
2,6, 1, 6, 0, 9, 0.00,60.00,Friday
12,396481147.1054021
60,158576360.20200002
281,175336597.95912
1113,42889604.50827704
1212,19678584.435990468
1262,1631366.4055545763
1286,0.0
1312,0.0
1530,1631366.4055545763
2,6, 1, 6, 0,10, 0.00,60.00,Friday
12,400585655.2946912
60,158576360.20200002
281,175336597.95912
1113,42889604.50827705
1212,23783092.62527959
1262,1631375.6074837043
1286,0.0
1312,0.0
1530,1631375.6074837043
2,6, 1, 6, 0,11, 0.00,60.00,Friday
12,402001309.57922494
60,158576360.20200002
281,175336597.95912
1113,42889604.50827704
1212,25198746.909813322
1262,1631336.4699767749
1286,0.0
1312,0.0
1530,1631336.4699767749
2,6, 1, 6, 0,12, 0.00,60.00,Friday
12,402274918.91344315
60,158576360.20200002
281,175336597.95912
1113,42889604.50827704
1212,25472356.244031563
1262,1631246.610253633
1286,0.0
1312,0.0
1530,1631246.610253633
2,6, 1, 6, 0,13, 0.00,60.00,Friday
12,381288633.3405417
60,158576360.20200002
281,155854753.74144003
1113,42889604.50827704
1212,23967914.888810076
1262,1631377.4336064332
1286,0.0
1312,0.0
1530,1631377.4336064332
2,6, 1, 6, 0,14, 0.00,60.00,Friday
12,402576363.59718555
60,158576360.20200002