Program Version,EnergyPlus, Version 25.1.0-68a4a7c774, YMD=2025.10.28 18:21
1,5,Environment Title[],Latitude[deg],Longitude[deg],Time Zone[],Elevation[m]
2,8,Day of Simulation[],Month[],Day of Month[],DST Indicator[1=yes 0=no],Hour[],StartMinute[],EndMinute[],DayType
3,5,Cumulative Day of Simulation[],Month[],Day of Month[],DST Indicator[1=yes 0=no],DayType  ! When Daily Meters Requested
4,2,Cumulative Days of Simulation[],Month[]  ! When Monthly Meters Requested
5,1,Cumulative Days of Simulation[] ! When Run Period Meters Requested
6,1,Calendar Year of Simulation[] ! When Annual Meters Requested
12,1,Electricity:Facility [J] !Hourly
1113,1,Fans:Electricity [J] !Hourly
1212,1,Cooling:Electricity [J] !Hourly
1312,1,Heating:Electricity [J] !Hourly
60,1,InteriorLights:Electricity [J] !Hourly
281,1,InteriorEquipment:Electricity [J] !Hourly
1262,1,NaturalGas:Facility [J] !Hourly
1286,1,Heating:NaturalGas [J] !Hourly
1530,1,Water Heater:WaterSystems:NaturalGas [J] !Hourly
14,9,Electricity:Facility [J] !Monthly [Value,Min,Day,Hour,Minute,Max,Day,Hour,Minute]
1264,9,NaturalGas:Facility [J] !Monthly [Value,Min,Day,Hour,Minute,Max,Day,Hour,Minute]
1360,9,Water:Facility [m3] !Monthly [Value,Min,Day,Hour,Minute,Max,Day,Hour,Minute]
462,9,EnergyTransfer:Facility [J] !Monthly [Value,Min,Day,Hour,Minute,Max,Day,Hour,Minute]
955,9,ElectricityPurchased:Facility [J] !Monthly [Value,Min,Day,Hour,Minute,Max,Day,Hour,Minute]
1004,9,ElectricitySurplusSold:Facility [J] !Monthly [Value,Min,Day,Hour,Minute,Max,Day,Hour,Minute]
1053,9,ElectricityNet:Facility [J] !Monthly [Value,Min,Day,Hour,Minute,Max,Day,Hour,Minute]
2287,9,Carbon Equivalent:Facility [kg] !Monthly [Value,Min,Day,Hour,Minute,Max,Day,Hour,Minute]
906,9,PlantLoopHeatingDemand:Facility [J] !Monthly [Value,Min,Day,Hour,Minute,Max,Day,Hour,Minute]
1409,9,MainsWater:Facility [m3] !Monthly [Value,Min,Day,Hour,Minute,Max,Day,Hour,Minute]
1965,9,WaterEnvironmentalFactors:Facility [L] !Monthly [Value,Min,Day,Hour,Minute,Max,Day,Hour,Minute]
1615,9,Source:Facility [J] !Monthly [Value,Min,Day,Hour,Minute,Max,Day,Hour,Minute]
1765,9,SO2:Facility [kg] !Monthly [Value,Min,Day,Hour,Minute,Max,Day,Hour,Minute]
1715,9,NOx:Facility [kg] !Monthly [Value,Min,Day,Hour,Minute,Max,Day,Hour,Minute]
1740,9,N2O:Facility [kg] !Monthly [Value,Min,Day,Hour,Minute,Max,Day,Hour,Minute]
1790,9,PM:Facility [kg] !Monthly [Value,Min,Day,Hour,Minute,Max,Day,Hour,Minute]
1840,9,PM2.5:Facility [kg] !Monthly [Value,Min,Day,Hour,Minute,Max,Day,Hour,Minute]
1815,9,PM10:Facility [kg] !Monthly [Value,Min,Day,Hour,Minute,Max,Day,Hour,Minute]
1665,9,CO:Facility [kg] !Monthly [Value,Min,Day,Hour,Minute,Max,Day,Hour,Minute]
1640,9,CO2:Facility [kg] !Monthly [Value,Min,Day,Hour,Minute,Max,Day,Hour,Minute]
1690,9,CH4:Facility [kg] !Monthly [Value,Min,Day,Hour,Minute,Max,Day,Hour,Minute]
1865,9,NH3:Facility [kg] !Monthly [Value,Min,Day,Hour,Minute,Max,Day,Hour,Minute]
1890,9,NMVOC:Facility [kg] !Monthly [Value,Min,Day,Hour,Minute,Max,Day,Hour,Minute]
1915,9,Hg:Facility [kg] !Monthly [Value,Min,Day,Hour,Minute,Max,Day,Hour,Minute]
1940,9,Pb:Facility [kg] !Monthly [Value,Min,Day,Hour,Minute,Max,Day,Hour,Minute]
1990,9,Nuclear High:Facility [kg] !Monthly [Value,Min,Day,Hour,Minute,Max,Day,Hour,Minute]
2015,9,Nuclear Low:Facility [m3] !Monthly [Value,Min,Day,Hour,Minute,Max,Day,Hour,Minute]
End of Data Dictionary
1,ANNUAL,  41.98, -87.92,  -6.00, 201.00
2,1, 1, 1, 0, 1, 0.00,60.00,Holiday
12,59331502.093694545
60,7036797.2313600015
281,44003904.86232
1113,0.0
1212,0.0
1262,72000.0
1286,0.0
1312,0.0
1530,72000.0
2,1, 1, 1, 0, 2, 0.00,60.00,Holiday
12,59331502.093694545
60,7036797.2313600015
281,44003904.86232
1113,0.0
1212,0.0
1262,1631084.0613433796
1286,0.0
1312,0.0
1530,1631084.0613433796
2,1, 1, 1, 0, 3, 0.00,60.00,Holiday
12,59331502.093694545
60,7036797.2313600015
281,44003904.86232
1113,0.0
1212,0.0
1262,72000.0
1286,0.0
1312,0.0
1530,72000.0
2,1, 1, 1, 0, 4, 0.00,60.00,Holiday
12,59331502.093694545
60,7036797.2313600015
281,44003904.86232
1113,0.0
1212,0.0
1262,1631044.83184318
1286,0.0
1312,0.0
1530,1631044.83184318
2,1, 1, 1, 0, 5, 0.00,60.00,Holiday
12,59331502.093694545
60,7036797.2313600015
281,44003904.86232
1113,0.0
1212,0.0
1262,1631017.9219451451
1286,0.0
1312,0.0
1530,1631017.9219451451
2,1, 1, 1, 0, 6, 0.00,60.00,Holiday
12,59331502.093694545
60,7036797.2313600015
281,44003904.86232
1113,0.0
1212,0.0
1262,72000.0
1286,0.0
1312,0.0
1530,72000.0
2,1, 1, 1, 0, 7, 0.00,60.00,Holiday
12,59331502.093694545
60,7036797.2313600015
281,44003904.86232
1113,0.0
1212,0.0
1262,1631030.86192308
1286,0.0
1312,0.0
1530,1631030.86192308
2,1, 1, 1, 0, 8, 0.00,60.00,Holiday
12,53804302.093694545
60,7036797.2313600015
281,44003904.86232
1113,0.0
1212,0.0
1262,1631001.9957434756
1286,0.0
1312,0.0
1530,1631001.9957434756
2,1, 1, 1, 0, 9, 0.00,60.00,Holiday
12,51040702.093694545
60,7036797.2313600015
281,44003904.86232
1113,0.0
1212,0.0
1262,72000.0
1286,0.0
1312,0.0
1530,72000.0
2,1, 1, 1, 0,10, 0.00,60.00,Holiday
12,51040702.093694545
60,7036797.2313600015
281,44003904.86232
1113,0.0
1212,0.0
1262,1631096.8712055262
1286,0.0
1312,0.0
1530,1631096.8712055262
2,1, 1, 1, 0,11, 0.00,60.00,Holiday
12,51040702.093694545
60,7036797.2313600015
281,44003904.86232
1113,0.0
1212,0.0
1262,1631101.7998689197
1286,0.0
1312,0.0
1530,1631101.7998689197
2,1, 1, 1, 0,12, 0.00,60.00,Holiday
12,51040702.093694545
60,7036797.2313600015
281,44003904.86232
1113,0.0
1212,0.0
1262,72000.0
1286,0.0
1312,0.0
1530,72000.0
2,1, 1, 1, 0,13, 0.00,60.00,Holiday
12,51040702.093694545
60,7036797.2313600015
281,44003904.86232
1113,0.0
1212,0.0
1262,1631069.4169715513
1286,0.0
1312,0.0
1530,1631069.4169715513
2,1, 1, 1, 0,14, 0.00,60.00,Holiday
12,51040702.093694545
60,7036797.2313600015
281,44003904.86232
1113,0.0
1212,0.0
1262,1631130.2131402455
1286,0.0
1312,0.0
1530,1631130.2131402455
2,1, 1, 1, 0,15, 0.00,60.00,Holiday
12,51040702.093694545
60,7036797.2313600015
281,44003904.86232
1113,0.0
1212,0.0
1262,72000.0
1286,0.0
1312,0.0
1530,72000.0
2,1, 1, 1, 0,16, 0.00,60.00,Holiday
12,51040702.093694545
60,7036797.2313600015
281,44003904.86232
1113,0.0
1212,0.0
1262,1631007.796106263
1286,0.0
1312,0.0
1530,1631007.796106263
2,1, 1, 1, 0,17, 0.00,60.00,Holiday
12,56567902.093694545
60,7036797.2313600015
281,44003904.86232
1113,0.0
1212,0.0
1262,1631092.1268897823
1286,0.0
1312,0.0
1530,1631092.1268897823
2,1, 1, 1, 0,18, 0.00,60.00,Holiday
12,59331502.093694545
60,7036797.2313600015
281,44003904.86232
1113,0.0
1212,0.0
1262,72000.0
1286,0.0
1312,0.0
1530,72000.0
2,1, 1, 1, 0,19, 0.00,60.00,Holiday
12,59331502.093694545
60,7036797.2313600015
281,44003904.86232
1113,0.0
1212,0.0
1262,1631055.3719854685
1286,0.0
1312,0.0
1530,1631055.3719854685
2,1, 1, 1, 0,20, 0.00,60.00,Holiday
12,59331502.093694545
60,7036797.2313600015
281,44003904.86232
1113,0.0
1212,0.0
1262,1631028.6377857488
1286,0.0
1312,0.0
1530,1631028.6377857488
2,1, 1, 1, 0,21, 0.00,60.00,Holiday
12,59331502.093694545
60,7036797.2313600015
281,44003904.86232
1113,0.0
1212,0.0
1262,72000.0
1286,0.0
1312,0.0
1530,72000.0
2,1, 1, 1, 0,22, 0.00,60.00,Holiday
12,59331502.093694545
60,7036797.2313600015
281,44003904.86232
1113,0.0
1212,0.0
1262,1631030.9771789259
1286,0.0
1312,0.0
1530,1631030.9771789259
2,1, 1, 1, 0,23, 0.00,60.00,Holiday
12,59331502.093694545
60,7036797.2313600015
281,44003904.86232
1113,0.0
1212,0.0
1262,1631012.5070630459
1286,0.0
1312,0.0
1530,1631012.5070630459
2,1, 1, 1, 0,24, 0.00,60.00,Holiday
12,59331502.093694545
60,7036797.2313600015
281,44003904.86232
1113,0.0
1212,0.0
1262,72000.0
1286,0.0
1312,0.0
1530,72000.0
2,2, 1, 2, 0, 1, 0.00,60.00,Monday
12,73999470.38113454
60,7036797.2313600015
281,58671873.14975999
1113,0.0
1212,0.0
1262,1631099.5283406682
1286,0.0
1312,0.0
1530,1631099.5283406682
2,2, 1, 2, 0, 2, 0.00,60.00,Monday
12,73999470.38113454
60,7036797.2313600015
281,58671873.14975999
1113,0.0
1212,0.0
1262,1631092.0177235294
1286,0.0
1312,0.0
1530,1631092.0177235294
2,2, 1, 2, 0, 3, 0.00,60.00,Monday
12,73999470.38113454
60,7036797.2313600015
281,58671873.14975999
1113,0.0
1212,0.0
1262,72000.0
1286,0.0
1312,0.0
1530,72000.0
2,2, 1, 2, 0, 4, 0.00,60.00,Monday
12,73999470.38113454
60,7036797.2313600015
281,58671873.14975999
1113,0.0
1212,0.0
1262,1631084.45237911
1286,0.0
1312,0.0
1530,1631084.45237911
2,2, 1, 2, 0, 5, 0.00,60.00,Monday
12,73999470.38113454
60,7036797.2313600015
281,58671873.14975999
1113,0.0
1212,0.0
1262,1631076.8200953235
1286,0.0
1312,0.0
1530,1631076.8200953235
2,2, 1, 2, 0, 6, 0.00,60.00,Monday
12,81036267.61249456
60,14073594.462720003
281,58671873.14975999
1113,0.0
1212,0.0
1262,72000.0
1286,0.0
1312,0.0
1530,72000.0
2,2, 1, 2, 0, 7, 0.00,60.00,Monday
12,119001753.10285068
60,14073594.462720003
281,58671873.14975999
1113,34183780.52664992
1212,3781704.9637062466
1262,1631021.7530138374
1286,0.0
1312,0.0
1530,1631021.7530138374
2,2, 1, 2, 0, 8, 0.00,60.00,Monday
12,139999742.13427958
60,42220783.38816001
281,58671873.14975999
1113,34183780.52664992
1212,2159705.0696950885
1262,1758326.4805242363
1286,127213.98718036275
1312,0.0
1530,1631112.4933438736
2,2, 1, 2, 0, 9, 0.00,60.00,Monday
12,306403228.7373587
60,126662350.16448
281,132011714.58696002
1113,34183780.52664992
1212,13545383.459254304
1262,1631189.7216858272
1286,0.0
1312,0.0
1530,1631189.7216858272
2,2, 1, 2, 0,10, 0.00,60.00,Monday
12,309917343.60269815
60,126662350.16448
281,132011714.58696002
1113,34183780.52664992
1212,17059498.32459373
1262,1631318.3363246792
1286,0.0
1312,0.0
1530,1631318.3363246792
2,2, 1, 2, 0,11, 0.00,60.00,Monday
12,312032156.4960135
60,126662350.16448
281,132011714.58696002
1113,34183780.52664992
1212,19174311.217909146
1262,1631340.9393835664
1286,0.0
1312,0.0
1530,1631340.9393835664
2,2, 1, 2, 0,12, 0.00,60.00,Monday
12,313441371.6437621
60,126662350.16448
281,132011714.58696002
1113,34183780.52664992
1212,20583526.365657724
1262,1631462.9817679077
1286,0.0
1312,0.0
1530,1631462.9817679077
2,2, 1, 2, 0,13, 0.00,60.00,Monday
12,298002795.3046441
60,126662350.16448
281,117343746.29951999
1113,34183780.52664992
1212,19812918.313979696
1262,3190943.6155193923
1286,0.0
1312,0.0
1530,3190943.6155193923
2,2, 1, 2, 0,14, 0.00,60.00,Monday
12,314185450.2642305
60,126662350.16448
281,132011714.58696002
1113,34183780.52664992
1212,21327604.9861261
1262,1631315.4479852126
1286,0.0
1312,0.0
1530,1631315.4479852126
2,2, 1, 2, 0,15, 0.00,60.00,Monday
12,314137700.7911864
60,126662350.16448
281,132011714.58696002
1113,34183780.52664992
1212,21279855.513082005
1262,1631354.138171546
1286,0.0
1312,0.0
1530,1631354.138171546
2,2, 1, 2, 0,16, 0.00,60.00,Monday
12,314679814.19946223
60,126662350.16448
281,132011714.58696002
1113,34183780.52664992
1212,21821968.921357796
1262,1631309.102026169
1286,0.0
1312,0.0
1530,1631309.102026169
2,2, 1, 2, 0,17, 0.00,60.00,Monday
12,320678428.111525
60,126662350.16448
281,132011714.58696002
1113,34183780.52664992
1212,22293382.83342064
1262,1631395.808688172
1286,0.0
1312,0.0
1530,1631395.808688172
2,2, 1, 2, 0,18, 0.00,60.00,Monday
12,199636479.8983271
60,70367972.31360002
281,73339841.43720001
1113,34183780.52664992
1212,13454085.620862616
1262,1631177.4342070904
1286,0.0
1312,0.0
1530,1631177.4342070904
2,2, 1, 2, 0,19, 0.00,60.00,Monday
12,152516501.79264092
60,42220783.38816001
281,58671873.14975999
1113,34183780.52664992
1212,9149264.72805643
1262,1631216.2097833557
1286,0.0
1312,0.0
1530,1631216.2097833557
2,2, 1, 2, 0,20, 0.00,60.00,Monday
12,151694286.1126404
60,42220783.38816001
281,58671873.14975999
1113,34183780.52664992
1212,8327049.048055921
1262,1631146.7445898547
1286,0.0
1312,0.0
1530,1631146.7445898547
2,2, 1, 2, 0,21, 0.00,60.00,Monday
12,136656101.03060237
60,28147188.925440006
281,58671873.14975999
1113,34183780.52664992
1212,7362458.428737891
1262,1631106.4428435182
1286,0.0
1312,0.0
1530,1631106.4428435182
2,2, 1, 2, 0,22, 0.00,60.00,Monday
12,136300179.13737488
60,28147188.925440006
281,58671873.14975999
1113,34183780.52664992
1212,7006536.535510401
1262,72000.0
1286,0.0
1312,0.0
1530,72000.0
2,2, 1, 2, 0,23, 0.00,60.00,Monday
12,84835828.89237376
60,14073594.462720003
281,58671873.14975999
1113,3200156.7410182105
1212,599404.5388610133
1262,1631110.930679543
1286,0.0
1312,0.0
1530,1631110.930679543
2,2, 1, 2, 0,24, 0.00,60.00,Monday
12,81504853.95041175
60,7036797.2313600015
281,58671873.14975999
1113,6400313.48203642
1212,1105070.087240799
1262,1631086.2937649472
1286,0.0
1312,0.0
1530,1631086.2937649472
2,3, 1, 3, 0, 1, 0.00,60.00,Tuesday
12,77765638.00155419
60,7036797.2313600015
281,58671873.14975999
1113,3200156.7410182105
1212,566010.8794014496
1262,72000.0
1286,0.0
1312,0.0
1530,72000.0
2,3, 1, 3, 0, 2, 0.00,60.00,Tuesday
12,75858457.31624076
60,7036797.2313600015
281,58671873.14975999
1113,1600078.370509105
1212,258908.5645971243
1262,1631091.2227300208
1286,0.0
1312,0.0
1530,1631091.2227300208
2,3, 1, 3, 0, 3, 0.00,60.00,Tuesday
12,73999470.38113454
60,7036797.2313600015
281,58671873.14975999
1113,0.0
1212,0.0
1262,1631071.271156801
1286,0.0
1312,0.0
1530,1631071.271156801
2,3, 1, 3, 0, 4, 0.00,60.00,Tuesday
12,73999470.38113454
60,7036797.2313600015
281,58671873.14975999
1113,0.0
1212,0.0
1262,72000.0
1286,0.0
1312,0.0
1530,72000.0
2,3, 1, 3, 0, 5, 0.00,60.00,Tuesday
12,73999470.38113454
60,7036797.2313600015
281,58671873.14975999
1113,0.0
1212,0.0
1262,1631063.7464427967
1286,0.0
1312,0.0
1530,1631063.7464427967
2,3, 1, 3, 0, 6, 0.00,60.00,Tuesday
12,81036267.61249456
60,14073594.462720003
281,58671873.14975999
1113,0.0
1212,0.0
1262,1631105.97758302
1286,0.0
1312,0.0
1530,1631105.97758302
2,3, 1, 3, 0, 7, 0.00,60.00,Tuesday
12,123590010.09314919
60,14073594.462720003
281,58671873.14975999
1113,34183780.52664992
1212,8369961.95400473
1262,72000.0
1286,0.0
1312,0.0
1530,72000.0
2,3, 1, 3, 0, 8, 0.00,60.00,Tuesday
12,142417990.68308595
60,42220783.38816001
281,58671873.14975999
1113,34183780.52664992
1212,4577953.61850147
1262,1631108.833137436
1286,0.0
1312,0.0
1530,1631108.833137436
2,3, 1, 3, 0, 9, 0.00,60.00,Tuesday
12,307954087.4280471
60,126662350.16448
281,132011714.58696002
1113,34183780.52664992
1212,15096242.14994272
1262,1631270.9495444512
1286,0.0
1312,0.0
1530,1631270.9495444512
2,3, 1, 3, 0,10, 0.00,60.00,Tuesday
12,310702238.20272845
60,126662350.16448
281,132011714.58696002
1113,34183780.52664992
1212,17844392.92462403
1262,1631370.3824610054
1286,0.0
1312,0.0
1530,1631370.3824610054
2,3, 1, 3, 0,11, 0.00,60.00,Tuesday
12,312041993.27006704
60,126662350.16448
281,132011714.58696002
1113,34183780.52664992
1212,19184147.99196261
1262,3190498.8443379346
1286,0.0
1312,0.0
1530,3190498.8443379346
2,3, 1, 3, 0,12, 0.00,60.00,Tuesday
12,312949108.2899848
60,126662350.16448
281,132011714.58696002
1113,34183780.52664992
1212,20091263.011880442
1262,1631274.717489396
1286,0.0
1312,0.0
1530,1631274.717489396
2,3, 1, 3, 0,13, 0.00,60.00,Tuesday
12,297449439.6120727
60,126662350.16448
281,117343746.29951999
1113,34183780.52664992
1212,19259562.621408265
1262,1631452.5238369897
1286,0.0
1312,0.0
1530,1631452.5238369897
2,3, 1, 3, 0,14, 0.00,60.00,Tuesday
12,313947746.73441863
60,126662350.16448
281,132011714.58696002
1113,34183780.52664992
1212,21089901.45631419
1262,1631310.3736820554
1286,0.0
1312,0.0
1530,1631310.3736820554
2,3, 1, 3, 0,15, 0.00,60.00,Tuesday
12,314283944.92338306
60,126662350.16448
281,132011714.58696002
1113,34183780.52664992
1212,21426099.645278644
1262,1631269.8564608684
1286,0.0
1312,0.0
1530,1631269.8564608684
2,3, 1, 3, 0,16, 0.00,60.00,Tuesday
12,314431855.26579136
60,126662350.16448
281,132011714.58696002
1113,34183780.52664992
1212,21574009.987686984
1262,1631303.3495124679
1286,0.0
1312,0.0
1530,1631303.3495124679
2,3, 1, 3, 0,17, 0.00,60.00,Tuesday
12,319951197.9674111
60,126662350.16448
281,132011714.58696002
1113,34183780.52664992
1212,21566152.689306688
1262,3190845.766502425
1286,0.0
1312,0.0
1530,3190845.766502425
2,3, 1, 3, 0,18, 0.00,60.00,Tuesday
12,199371857.2023769
60,70367972.31360002
281,73339841.43720001
1113,34183780.52664992
1212,13189462.924912406
1262,1631247.029569182
1286,0.0
1312,0.0
1530,1631247.029569182
2,3, 1, 3, 0,19, 0.00,60.00,Tuesday
12,152152116.53749436
60,42220783.38816001
281,58671873.14975999
1113,34183780.52664992
1212,8784879.472909853
1262,72000.0
1286,0.0
1312,0.0
1530,72000.0
2,3, 1, 3, 0,20, 0.00,60.00,Tuesday
12,150974525.43511137
60,42220783.38816001
281,58671873.14975999
1113,34183780.52664992
1212,7607288.370526893
1262,1631192.5249931575
1286,0.0
1312,0.0
1530,1631192.5249931575
2,3, 1, 3, 0,21, 0.00,60.00,Tuesday
12,135729748.1338021
60,28147188.925440006
281,58671873.14975999
1113,34183780.52664992
1212,6436105.531937619
1262,1631136.5717702026
1286,0.0
1312,0.0
1530,1631136.5717702026
2,3, 1, 3, 0,22, 0.00,60.00,Tuesday
12,135124110.87561575
60,28147188.925440006
281,58671873.14975999
1113,34183780.52664992
1212,5830468.273751271
1262,1631098.591250577
1286,0.0
1312,0.0
1530,1631098.591250577
2,3, 1, 3, 0,23, 0.00,60.00,Tuesday
12,82936196.7656886
60,14073594.462720003
281,58671873.14975999
1113,1600078.3705091053
1212,299850.78268493543
1262,72000.0
1286,0.0
1312,0.0
1530,72000.0
2,3, 1, 3, 0,24, 0.00,60.00,Tuesday
12,77696482.8837777
60,7036797.2313600015
281,58671873.14975999
1113,3200156.74101821
1212,496855.761624955
1262,1631085.435617644
1286,0.0
1312,0.0
1530,1631085.435617644
2,4, 1, 4, 0, 1, 0.00,60.00,Wednesday
12,73999470.38113454
60,7036797.2313600015
281,58671873.14975999
1113,0.0
1212,0.0
1262,1631077.9152594272
1286,0.0
1312,0.0
1530,1631077.9152594272
2,4, 1, 4, 0, 2, 0.00,60.00,Wednesday
12,73999470.38113454
60,7036797.2313600015
281,58671873.14975999
1113,0.0
1212,0.0
1262,72000.0
1286,0.0
1312,0.0
1530,72000.0
2,4, 1, 4, 0, 3, 0.00,60.00,Wednesday
12,73999470.38113454
60,7036797.2313600015
281,58671873.14975999
1113,0.0
1212,0.0
1262,1631070.6209908135
1286,0.0
1312,0.0
1530,1631070.6209908135
2,4, 1, 4, 0, 4, 0.00,60.00,Wednesday
12,73999470.38113454
60,7036797.2313600015
281,58671873.14975999
1113,0.0
1212,0.0
1262,1631063.2830142374
1286,0.0
1312,0.0
1530,1631063.2830142374
2,4, 1, 4, 0, 5, 0.00,60.00,Wednesday
12,73999470.38113454
60,7036797.2313600015
281,58671873.14975999
1113,0.0
1212,0.0
1262,72000.0
1286,0.0
1312,0.0
1530,72000.0
2,4, 1, 4, 0, 6, 0.00,60.00,Wednesday
12,81036267.61249456
60,14073594.462720003
281,58671873.14975999
1113,0.0
1212,0.0
1262,1631078.0446724307
1286,0.0
1312,0.0
1530,1631078.0446724307
2,4, 1, 4, 0, 7, 0.00,60.00,Wednesday
12,123308140.72720778
60,14073594.462720003
281,58671873.14975999
1113,34183780.52664992
1212,8088092.588063322
1262,1631115.0627725841
1286,0.0
1312,0.0
1530,1631115.0627725841
2,4, 1, 4, 0, 8, 0.00,60.00,Wednesday
12,142413131.7624916
60,42220783.38816001
281,58671873.14975999
1113,34183780.52664992
1212,4573094.6979071135
1262,1631123.4054832929
1286,0.0
1312,0.0
1530,1631123.4054832929
2,4, 1, 4, 0, 9, 0.00,60.00,Wednesday
12,308344889.92487943
60,126662350.16448
281,132011714.58696002
1113,34183780.52664992
1212,15487044.646774983
1262,1631242.3028059283
1286,0.0
1312,0.0
1530,1631242.3028059283
2,4, 1, 4, 0,10, 0.00,60.00,Wednesday
12,311492414.5891097
60,126662350.16448
281,132011714.58696002
1113,34183780.52664992
1212,18634569.311005335
1262,1631373.6142144264
1286,0.0
1312,0.0
1530,1631373.6142144264
2,4, 1, 4, 0,11, 0.00,60.00,Wednesday
12,312871662.08894336
60,126662350.16448
281,132011714.58696002
1113,34183780.52664992
1212,20013816.81083896
1262,1631400.1915007338
1286,0.0
1312,0.0
1530,1631400.1915007338
2,4, 1, 4, 0,12, 0.00,60.00,Wednesday
12,313780525.44027066
60,126662350.16448
281,132011714.58696002
1113,34183780.52664992
1212,20922680.162166297
1262,1631318.5864990018
1286,0.0
1312,0.0
1530,1631318.5864990018
2,4, 1, 4, 0,13, 0.00,60.00,Wednesday
12,298312135.30120724
60,126662350.16448
281,117343746.29951999
1113,34183780.52664992
1212,20122258.31054279
1262,3190785.520950028
1286,0.0
1312,0.0
1530,3190785.520950028
2,4, 1, 4, 0,14, 0.00,60.00,Wednesday
12,314846993.256992
60,126662350.16448
281,132011714.58696002
1113,34183780.52664992
1212,21989147.978887618
1262,1631433.1513879546
1286,0.0
1312,0.0
1530,1631433.1513879546
2,4, 1, 4, 0,15, 0.00,60.00,Wednesday
12,315055414.9015089
60,126662350.16448
281,132011714.58696002
1113,34183780.52664992
1212,22197569.62340451
1262,1631229.9182574628
1286,0.0
1312,0.0
1530,1631229.9182574628
2,4, 1, 4, 0,16, 0.00,60.00,Wednesday
12,315068402.34514326
60,126662350.16448
281,132011714.58696002
1113,34183780.52664992
1212,22210557.06703887
1262,1631283.8576930573
1286,0.0
1312,0.0
1530,1631283.8576930573
2,4, 1, 4, 0,17, 0.00,60.00,Wednesday
12,320114796.47903615
60,126662350.16448
281,132011714.58696002
1113,34183780.52664992
1212,21729751.20093173
1262,1631383.9049628119
1286,0.0
1312,0.0
1530,1631383.9049628119
2,4, 1, 4, 0,18, 0.00,60.00,Wednesday
12,198960082.1098701
60,70367972.31360002
281,73339841.43720001
1113,34183780.52664992
1212,12777687.832405647
1262,1631242.1481186384
1286,0.0
1312,0.0
1530,1631242.1481186384
2,4, 1, 4, 0,19, 0.00,60.00,Wednesday
12,151444104.53307313
60,42220783.38816001
281,58671873.14975999
1113,34183780.52664992
1212,8076867.468488637
1262,1631103.579616556
1286,0.0
1312,0.0
1530,1631103.579616556
2,4, 1, 4, 0,20, 0.00,60.00,Wednesday
12,150165053.78004515
60,42220783.38816001
281,58671873.14975999
1113,34183780.52664992
1212,6797816.715460672
1262,1631172.306219479
1286,0.0
1312,0.0
1530,1631172.306219479
2,4, 1, 4, 0,21, 0.00,60.00,Wednesday
12,135023909.0650626
60,28147188.925440006
281,58671873.14975999
1113,34183780.52664992
1212,5730266.463198143
1262,1631138.3795703114
1286,0.0
1312,0.0
1530,1631138.3795703114
2,4, 1, 4, 0,22, 0.00,60.00,Wednesday
12,134399833.61265454
60,28147188.925440006
281,58671873.14975999
1113,34183780.52664992
1212,5106191.010790078
1262,72000.0
1286,0.0
1312,0.0
1530,72000.0
2,4, 1, 4, 0,23, 0.00,60.00,Wednesday
12,81036267.61249456
60,14073594.462720003
281,58671873.14975999
1113,0.0
1212,0.0
1262,1631098.2982751313
1286,0.0
1312,0.0
1530,1631098.2982751313
2,4, 1, 4, 0,24, 0.00,60.00,Wednesday
12,73999470.38113454
60,7036797.2313600015
281,58671873.14975999
1113,0.0
1212,0.0
1262,1631090.9210566906
1286,0.0
1312,0.0
1530,1631090.9210566906
2,5, 1, 5, 0, 1, 0.00,60.00,Thursday
12,73999470.38113454
60,7036797.2313600015
281,58671873.14975999
1113,0.0
1212,0.0
1262,72000.0
1286,0.0
1312,0.0
1530,72000.0
2,5, 1, 5, 0, 2, 0.00,60.00,Thursday
12,73999470.38113454
60,7036797.2313600015
281,58671873.14975999
1113,0.0
1212,0.0
1262,1631083.9669794578
1286,0.0
1312,0.0
1530,1631083.9669794578
2,5, 1, 5, 0, 3, 0.00,60.00,Thursday
12,73999470.38113454
60,7036797.2313600015
281,58671873.14975999
1113,0.0
1212,0.0
1262,1631076.9006977186
1286,0.0
1312,0.0
1530,1631076.9006977186
2,5, 1, 5, 0, 4, 0.00,60.00,Thursday
12,73999470.38113454
60,7036797.2313600015
281,58671873.14975999
1113,0.0
1212,0.0
1262,72000.0
1286,0.0
1312,0.0
1530,72000.0
2,5, 1, 5, 0, 5, 0.00,60.00,Thursday
12,73999470.38113454
60,7036797.2313600015
281,58671873.14975999
1113,0.0
1212,0.0
1262,1631084.1575783158
1286,0.0
1312,0.0
1530,1631084.1575783158
2,5, 1, 5, 0, 6, 0.00,60.00,Thursday
12,81036267.61249456
60,14073594.462720003
281,58671873.14975999
1113,0.0
1212,0.0
1262,1631128.5992848151
1286,0.0
1312,0.0
1530,1631128.5992848151
2,5, 1, 5, 0, 7, 0.00,60.00,Thursday
12,120897523.38349757
60,14073594.462720003
281,58671873.14975999
1113,34183780.52664992
1212,5677475.244353105
1262,72000.0
1286,0.0
1312,0.0
1530,72000.0
2,5, 1, 5, 0, 8, 0.00,60.00,Thursday
12,139273393.6694581
60,42220783.38816001
281,58671873.14975999
1113,34183780.52664992
1212,1433356.6048736083
1262,1849429.7398941775
1286,218272.97008604518
1312,0.0
1530,1631156.7698081324
2,5, 1, 5, 0, 9, 0.00,60.00,Thursday
12,305092794.64149284
60,126662350.16448
281,132011714.58696002
1113,34183780.52664992
1212,12234949.363388442
1262,1631361.392487956
1286,0.0
1312,0.0
1530,1631361.392487956
2,5, 1, 5, 0,10, 0.00,60.00,Thursday
12,308710793.31913346
60,126662350.16448
281,132011714.58696002
1113,34183780.52664993
1212,15852948.041029043
1262,1631372.8630759907
1286,0.0
1312,0.0
1530,1631372.8630759907
2,5, 1, 5, 0,11, 0.00,60.00,Thursday
12,310619925.0831751
60,126662350.16448
281,132011714.58696002
1113,34183780.52664993
1212,17762079.805070687
1262,1631401.4547220855
1286,0.0
1312,0.0
1530,1631401.4547220855
2,5, 1, 5, 0,12, 0.00,60.00,Thursday
12,311818502.8211254
60,126662350.16448
281,132011714.58696002
1113,34183780.52664992
1212,18960657.543020945
1262,3190879.717126313
1286,0.0
1312,0.0
1530,3190879.717126313
2,5, 1, 5, 0,13, 0.00,60.00,Thursday
12,296592495.5814866
60,126662350.16448
281,117343746.29951999
1113,34183780.52664992
1212,18402618.590822153
1262,1631349.703958476
1286,0.0
1312,0.0
1530,1631349.703958476
2,5, 1, 5, 0,14, 0.00,60.00,Thursday
12,313328278.68593454
60,126662350.16448
281,132011714.58696002
1113,34183780.52664992
1212,20470433.40783014
1262,1631461.0994528998
1286,0.0
1312,0.0
1530,1631461.0994528998
2,5, 1, 5, 0,15, 0.00,60.00,Thursday
12,314117159.3277897
60,126662350.16448
281,132011714.58696002
1113,34183780.52664992
1212,21259314.049685344
1262,1631354.6250986645
1286,0.0
1312,0.0
1530,1631354.6250986645
2,5, 1, 5, 0,16, 0.00,60.00,Thursday
12,314174008.6548257
60,126662350.16448
281,132011714.58696002
1113,34183780.52664992
1212,21316163.3767213
1262,1631316.3310359512
1286,0.0
1312,0.0
1530,1631316.3310359512
2,5, 1, 5, 0,17, 0.00,60.00,Thursday
12,319103704.5075079
60,126662350.16448
281,132011714.58696002
1113,34183780.52664992
1212,20718659.229403514
1262,3190777.0842329604
1286,0.0
1312,0.0
1530,3190777.0842329604
2,5, 1, 5, 0,18, 0.00,60.00,Thursday
12,198271756.18996978
60,70367972.31360002
281,73339841.43720001
1113,34183780.52664992
1212,12089361.912505304
1262,1631163.4053509913
1286,0.0
1312,0.0
1530,1631163.4053509913
2,5, 1, 5, 0,19, 0.00,60.00,Thursday
12,151008170.28393298
60,42220783.38816001
281,58671873.14975999
1113,34183780.52664992
1212,7640933.219348488
1262,72000.0
1286,0.0
1312,0.0
1530,72000.0
2,5, 1, 5, 0,20, 0.00,60.00,Thursday
12,149633404.40465644
60,42220783.38816001
281,58671873.14975999
1113,34183780.52664992
1212,6266167.34007195
1262,1631114.3387717025
1286,0.0
1312,0.0
1530,1631114.3387717025
2,5, 1, 5, 0,21, 0.00,60.00,Thursday
12,134130852.5978097
60,28147188.925440006
281,58671873.14975999
1113,34183780.52664992
1212,4837209.995945226
1262,1631197.7567063177
1286,0.0
1312,0.0
1530,1631197.7567063177
2,5, 1, 5, 0,22, 0.00,60.00,Thursday
12,133314857.70275196
60,28147188.925440006
281,58671873.14975999
1113,34183780.52664992
1212,4021215.100887499
1262,1631024.4790343482
1286,0.0
1312,0.0
1530,1631024.4790343482
2,5, 1, 5, 0,23, 0.00,60.00,Thursday
12,81036267.61249456
60,14073594.462720003
281,58671873.14975999
1113,0.0
1212,0.0
1262,72000.0
1286,0.0
1312,0.0
1530,72000.0
2,5, 1, 5, 0,24, 0.00,60.00,Thursday
12,73999470.38113454
60,7036797.2313600015
281,58671873.14975999
1113,0.0
1212,0.0
1262,1631013.627703113
1286,0.0
1312,0.0
1530,1631013.627703113
2,6, 1, 6, 0, 1, 0.00,60.00,Friday
12,73999470.38113454
60,7036797.2313600015
281,58671873.14975999
1113,0.0
1212,0.0
1262,1631006.47593442
1286,0.0
1312,0.0
1530,1631006.47593442
2,6, 1, 6, 0, 2, 0.00,60.00,Friday
12,73999470.38113454
60,7036797.2313600015
281,58671873.14975999
1113,0.0
1212,0.0
1262,72000.0
1286,0.0
1312,0.0
1530,72000.0
2,6, 1, 6, 0, 3, 0.00,60.00,Friday
12,73999470.38113454
60,7036797.2313600015
281,58671873.14975999
1113,0.0
1212,0.0
1262,1631103.7744394764
1286,0.0
1312,0.0
1530,1631103.7744394764
2,6, 1, 6, 0, 4, 0.00,60.00,Friday
12,73999470.38113454
60,7036797.2313600015
281,58671873.14975999
1113,0.0
1212,0.0
1262,1631097.0433903488
1286,0.0
1312,0.0
1530,1631097.0433903488
2,6, 1, 6, 0, 5, 0.00,60.00,Friday
12,73999470.38113454
60,7036797.2313600015
281,58671873.14975999
1113,0.0
1212,0.0
1262,72000.0
1286,0.0
1312,0.0
1530,72000.0
2,6, 1, 6, 0, 6, 0.00,60.00,Friday
12,81036267.61249456
60,14073594.462720003
281,58671873.14975999
1113,0.0
1212,0.0
1262,1631121.5370958282
1286,0.0
1312,0.0
1530,1631121.5370958282
2,6, 1, 6, 0, 7, 0.00,60.00,Friday
12,120183547.89192216
60,14073594.462720003
281,58671873.14975999
1113,34183780.52664992
1212,4963499.752777709
1262,1631045.626562686
1286,0.0
1312,0.0
1530,1631045.626562686
2,6, 1, 6, 0, 8, 0.00,60.00,Friday
12,139042438.54592878
60,42220783.38816001
281,58671873.14975999
1113,34183780.52664992
1212,1202401.4813442854
1262,2732683.833789195
1286,1101488.3675507973
1312,0.0
1530,1631195.4662383974
2,6, 1, 6, 0, 9, 0.00,60.00,Friday
12,304515051.12317395
60,126662350.16448
281,132011714.58696002
1113,34183780.52664992
1212,11657205.845069509
1262,1631365.9312636903
1286,0.0
1312,0.0
1530,1631365.9312636903
2,6, 1, 6, 0,10, 0.00,60.00,Friday
12,307950529.1474343
60,126662350.16448
281,132011714.58696002
1113,34183780.52664993
1212,15092683.869329872
1262,1631375.1499530924
1286,0.0
1312,0.0
1530,1631375.1499530924
2,6, 1, 6, 0,11, 0.00,60.00,Friday
12,309273923.7692711
60,126662350.16448
281,132011714.58696002
1113,34183780.52664992
1212,16416078.491166674
1262,1631335.9672697727
1286,0.0
1312,0.0
1530,1631335.9672697727
2,6, 1, 6, 0,12, 0.00,60.00,Friday
12,309540812.8375813
60,126662350.16448
281,132011714.58696002
1113,34183780.52664992
1212,16682967.559476849
1262,1631246.0425053253
1286,0.0
1312,0.0
1530,1631246.0425053253
2,6, 1, 6, 0,13, 0.00,60.00,Friday
12,293749766.99134606
60,126662350.16448
281,117343746.29951999
1113,34183780.52664992
1212,15559890.000681633
1262,1631376.857310329
1286,0.0
1312,0.0
1530,1631376.857310329
2,6, 1, 6, 0,14, 0.00,60.00,Friday
12,309868554.5790212
60,126662350.16448
281,132011714.58696002
1113,34183780.52664992
1212,17010709.300916776
1262,3190874.1665586056
1286,0.0
1312,0.0
1530,3190874.1665586056
2,6, 1, 6, 0,15, 0.00,60.00,Friday
12,310344999.4978978
60,126662350.16448
281,132011714.58696002
1113,34183780.52664992
1212,17487154.219793454
1262,1631168.539949175
1286,0.0
1312,0.0
1530,1631168.539949175
2,6, 1, 6, 0,16, 0.00,60.00,Friday
12,310500717.0737207