Program Version,EnergyPlus, Version 25.1.0-68a4a7c774, YMD=2025.10.28 18:22
1,5,Environment Title[],Latitude[deg],Longitude[deg],Time Zone[],Elevation[m]
2,8,Day of Simulation[],Month[],Day of Month[],DST Indicator[1=yes 0=no],Hour[],StartMinute[],EndMinute[],DayType
3,5,Cumulative Day of Simulation[],Month[],Day of Month[],DST Indicator[1=yes 0=no],DayType  ! When Daily Meters Requested
4,2,Cumulative Days of Simulation[],Month[]  ! When Monthly Meters Requested
5,1,Cumulative Days of Simulation[] ! When Run Period Meters Requested
6,1,Calendar Year of Simulation[] ! When Annual Meters Requested
12,1,Electricity:Facility [J] !Hourly
1113,1,Fans:Electricity [J] !Hourly
1212,1,Cooling:Electricity [J] !Hourly
1312,1,Heating:Electricity [J] !Hourly
60,1,InteriorLights:Electricity [J] !Hourly
281,1,InteriorEquipment:Electricity [J] !Hourly
1262,1,NaturalGas:Facility [J] !Hourly
1286,1,Heating:NaturalGas [J] !Hourly
1530,1,Water Heater:WaterSystems:NaturalGas [J] !Hourly
14,9,Electricity:Facility [J] !Monthly [Value,Min,Day,Hour,Minute,Max,Day,Hour,Minute]
1264,9,NaturalGas:Facility [J] !Monthly [Value,Min,Day,Hour,Minute,Max,Day,Hour,Minute]
1360,9,Water:Facility [m3] !Monthly [Value,Min,Day,Hour,Minute,Max,Day,Hour,Minute]
462,9,EnergyTransfer:Facility [J] !Monthly [Value,Min,Day,Hour,Minute,Max,Day,Hour,Minute]
955,9,ElectricityPurchased:Facility [J] !Monthly [Value,Min,Day,Hour,Minute,Max,Day,Hour,Minute]
1004,9,ElectricitySurplusSold:Facility [J] !Monthly [Value,Min,Day,Hour,Minute,Max,Day,Hour,Minute]
1053,9,ElectricityNet:Facility [J] !Monthly [Value,Min,Day,Hour,Minute,Max,Day,Hour,Minute]
2287,9,Carbon Equivalent:Facility [kg] !Monthly [Value,Min,Day,Hour,Minute,Max,Day,Hour,Minute]
906,9,PlantLoopHeatingDemand:Facility [J] !Monthly [Value,Min,Day,Hour,Minute,Max,Day,Hour,Minute]
1409,9,MainsWater:Facility [m3] !Monthly [Value,Min,Day,Hour,Minute,Max,Day,Hour,Minute]
1965,9,WaterEnvironmentalFactors:Facility [L] !Monthly [Value,Min,Day,Hour,Minute,Max,Day,Hour,Minute]
1615,9,Source:Facility [J] !Monthly [Value,Min,Day,Hour,Minute,Max,Day,Hour,Minute]
1765,9,SO2:Facility [kg] !Monthly [Value,Min,Day,Hour,Minute,Max,Day,Hour,Minute]
1715,9,NOx:Facility [kg] !Monthly [Value,Min,Day,Hour,Minute,Max,Day,Hour,Minute]
1740,9,N2O:Facility [kg] !Monthly [Value,Min,Day,Hour,Minute,Max,Day,Hour,Minute]
1790,9,PM:Facility [kg] !Monthly [Value,Min,Day,Hour,Minute,Max,Day,Hour,Minute]
1840,9,PM2.5:Facility [kg] !Monthly [Value,Min,Day,Hour,Minute,Max,Day,Hour,Minute]
1815,9,PM10:Facility [kg] !Monthly [Value,Min,Day,Hour,Minute,Max,Day,Hour,Minute]
1665,9,CO:Facility [kg] !Monthly [Value,Min,Day,Hour,Minute,Max,Day,Hour,Minute]
1640,9,CO2:Facility [kg] !Monthly [Value,Min,Day,Hour,Minute,Max,Day,Hour,Minute]
1690,9,CH4:Facility [kg] !Monthly [Value,Min,Day,Hour,Minute,Max,Day,Hour,Minute]
1865,9,NH3:Facility [kg] !Monthly [Value,Min,Day,Hour,Minute,Max,Day,Hour,Minute]
1890,9,NMVOC:Facility [kg] !Monthly [Value,Min,Day,Hour,Minute,Max,Day,Hour,Minute]
1915,9,Hg:Facility [kg] !Monthly [Value,Min,Day,Hour,Minute,Max,Day,Hour,Minute]
1940,9,Pb:Facility [kg] !Monthly [Value,Min,Day,Hour,Minute,Max,Day,Hour,Minute]
1990,9,Nuclear High:Facility [kg] !Monthly [Value,Min,Day,Hour,Minute,Max,Day,Hour,Minute]
2015,9,Nuclear Low:Facility [m3] !Monthly [Value,Min,Day,Hour,Minute,Max,Day,Hour,Minute]
End of Data Dictionary
1,ANNUAL,  41.98, -87.92,  -6.00, 201.00
2,1, 1, 1, 0, 1, 0.00,60.00,Holiday
12,67197294.39637454
60,8217264.130920002
281,50689230.265439995
1113,0.0
1212,0.0
1262,72000.0
1286,0.0
1312,0.0
1530,72000.0
2,1, 1, 1, 0, 2, 0.00,60.00,Holiday
12,67197294.39637454
60,8217264.130920002
281,50689230.265439995
1113,0.0
1212,0.0
1262,1631084.0613433796
1286,0.0
1312,0.0
1530,1631084.0613433796
2,1, 1, 1, 0, 3, 0.00,60.00,Holiday
12,67197294.39637454
60,8217264.130920002
281,50689230.265439995
1113,0.0
1212,0.0
1262,72000.0
1286,0.0
1312,0.0
1530,72000.0
2,1, 1, 1, 0, 4, 0.00,60.00,Holiday
12,67197294.39637454
60,8217264.130920002
281,50689230.265439995
1113,0.0
1212,0.0
1262,1631044.83184318
1286,0.0
1312,0.0
1530,1631044.83184318
2,1, 1, 1, 0, 5, 0.00,60.00,Holiday
12,67197294.39637454
60,8217264.130920002
281,50689230.265439995
1113,0.0
1212,0.0
1262,1631017.9219451451
1286,0.0
1312,0.0
1530,1631017.9219451451
2,1, 1, 1, 0, 6, 0.00,60.00,Holiday
12,67197294.39637454
60,8217264.130920002
281,50689230.265439995
1113,0.0
1212,0.0
1262,72000.0
1286,0.0
1312,0.0
1530,72000.0
2,1, 1, 1, 0, 7, 0.00,60.00,Holiday
12,67197294.39637454
60,8217264.130920002
281,50689230.265439995
1113,0.0
1212,0.0
1262,1631030.86192308
1286,0.0
1312,0.0
1530,1631030.86192308
2,1, 1, 1, 0, 8, 0.00,60.00,Holiday
12,61670094.39637454
60,8217264.130920002
281,50689230.265439995
1113,0.0
1212,0.0
1262,1631001.9957434756
1286,0.0
1312,0.0
1530,1631001.9957434756
2,1, 1, 1, 0, 9, 0.00,60.00,Holiday
12,58906494.39637454
60,8217264.130920002
281,50689230.265439995
1113,0.0
1212,0.0
1262,72000.0
1286,0.0
1312,0.0
1530,72000.0
2,1, 1, 1, 0,10, 0.00,60.00,Holiday
12,58906494.39637454
60,8217264.130920002
281,50689230.265439995
1113,0.0
1212,0.0
1262,1631096.8712055262
1286,0.0
1312,0.0
1530,1631096.8712055262
2,1, 1, 1, 0,11, 0.00,60.00,Holiday
12,58906494.39637454
60,8217264.130920002
281,50689230.265439995
1113,0.0
1212,0.0
1262,1631101.7998689197
1286,0.0
1312,0.0
1530,1631101.7998689197
2,1, 1, 1, 0,12, 0.00,60.00,Holiday
12,58906494.39637454
60,8217264.130920002
281,50689230.265439995
1113,0.0
1212,0.0
1262,72000.0
1286,0.0
1312,0.0
1530,72000.0
2,1, 1, 1, 0,13, 0.00,60.00,Holiday
12,58906494.39637454
60,8217264.130920002
281,50689230.265439995
1113,0.0
1212,0.0
1262,1631069.4169715513
1286,0.0
1312,0.0
1530,1631069.4169715513
2,1, 1, 1, 0,14, 0.00,60.00,Holiday
12,58906494.39637454
60,8217264.130920002
281,50689230.265439995
1113,0.0
1212,0.0
1262,1631130.2131402455
1286,0.0
1312,0.0
1530,1631130.2131402455
2,1, 1, 1, 0,15, 0.00,60.00,Holiday
12,58906494.39637454
60,8217264.130920002
281,50689230.265439995
1113,0.0
1212,0.0
1262,72000.0
1286,0.0
1312,0.0
1530,72000.0
2,1, 1, 1, 0,16, 0.00,60.00,Holiday
12,58906494.39637454
60,8217264.130920002
281,50689230.265439995
1113,0.0
1212,0.0
1262,1631007.796106263
1286,0.0
1312,0.0
1530,1631007.796106263
2,1, 1, 1, 0,17, 0.00,60.00,Holiday
12,64433694.39637454
60,8217264.130920002
281,50689230.265439995
1113,0.0
1212,0.0
1262,1631092.1268897823
1286,0.0
1312,0.0
1530,1631092.1268897823
2,1, 1, 1, 0,18, 0.00,60.00,Holiday
12,67197294.39637454
60,8217264.130920002
281,50689230.265439995
1113,0.0
1212,0.0
1262,72000.0
1286,0.0
1312,0.0
1530,72000.0
2,1, 1, 1, 0,19, 0.00,60.00,Holiday
12,67197294.39637454
60,8217264.130920002
281,50689230.265439995
1113,0.0
1212,0.0
1262,1631055.3719854685
1286,0.0
1312,0.0
1530,1631055.3719854685
2,1, 1, 1, 0,20, 0.00,60.00,Holiday
12,67197294.39637454
60,8217264.130920002
281,50689230.265439995
1113,0.0
1212,0.0
1262,1631028.6377857488
1286,0.0
1312,0.0
1530,1631028.6377857488
2,1, 1, 1, 0,21, 0.00,60.00,Holiday
12,67197294.39637454
60,8217264.130920002
281,50689230.265439995
1113,0.0
1212,0.0
1262,72000.0
1286,0.0
1312,0.0
1530,72000.0
2,1, 1, 1, 0,22, 0.00,60.00,Holiday
12,67197294.39637454
60,8217264.130920002
281,50689230.265439995
1113,0.0
1212,0.0
1262,1631030.9771789259
1286,0.0
1312,0.0
1530,1631030.9771789259
2,1, 1, 1, 0,23, 0.00,60.00,Holiday
12,67197294.39637454
60,8217264.130920002
281,50689230.265439995
1113,0.0
1212,0.0
1262,1631012.5070630459
1286,0.0
1312,0.0
1530,1631012.5070630459
2,1, 1, 1, 0,24, 0.00,60.00,Holiday
12,67197294.39637454
60,8217264.130920002
281,50689230.265439995
1113,0.0
1212,0.0
1262,72000.0
1286,0.0
1312,0.0
1530,72000.0
2,2, 1, 2, 0, 1, 0.00,60.00,Monday
12,84093704.48485455
60,8217264.130920002
281,67585640.35392003
1113,0.0
1212,0.0
1262,1631099.5283406682
1286,0.0
1312,0.0
1530,1631099.5283406682
2,2, 1, 2, 0, 2, 0.00,60.00,Monday
12,84093704.48485455
60,8217264.130920002
281,67585640.35392003
1113,0.0
1212,0.0
1262,1631092.0177235294
1286,0.0
1312,0.0
1530,1631092.0177235294
2,2, 1, 2, 0, 3, 0.00,60.00,Monday
12,84093704.48485455
60,8217264.130920002
281,67585640.35392003
1113,0.0
1212,0.0
1262,72000.0
1286,0.0
1312,0.0
1530,72000.0
2,2, 1, 2, 0, 4, 0.00,60.00,Monday
12,84093704.48485455
60,8217264.130920002
281,67585640.35392003
1113,0.0
1212,0.0
1262,1631084.45237911
1286,0.0
1312,0.0
1530,1631084.45237911
2,2, 1, 2, 0, 5, 0.00,60.00,Monday
12,84093704.48485455
60,8217264.130920002
281,67585640.35392003
1113,0.0
1212,0.0
1262,1631076.8200953235
1286,0.0
1312,0.0
1530,1631076.8200953235
2,2, 1, 2, 0, 6, 0.00,60.00,Monday
12,92310968.61577456
60,16434528.261840004
281,67585640.35392003
1113,0.0
1212,0.0
1262,72000.0
1286,0.0
1312,0.0
1530,72000.0
2,2, 1, 2, 0, 7, 0.00,60.00,Monday
12,138813409.61338764
60,16434528.261840004
281,67585640.35392003
1113,38940452.45959189
1212,7561988.53802123
1262,1631021.7530138374
1286,0.0
1312,0.0
1530,1631021.7530138374
2,2, 1, 2, 0, 8, 0.00,60.00,Monday
12,163881164.17848802
60,49303584.78552
281,67585640.35392003
1113,38940452.45959189
1212,5287886.579441594
1262,1631112.4933438736
1286,0.0
1312,0.0
1530,1631112.4933438736
2,2, 1, 2, 0, 9, 0.00,60.00,Monday
12,357236132.06089246
60,147910754.35656002
281,152067690.79632002
1113,38940452.45959189
1212,18317234.44840604
1262,1631189.7216858272
1286,0.0
1312,0.0
1530,1631189.7216858272
2,2, 1, 2, 0,10, 0.00,60.00,Monday
12,361386209.512928
60,147910754.35656002
281,152067690.79632002
1113,38940452.45959189
1212,22467311.900441665
1262,1631318.3363246792
1286,0.0
1312,0.0
1530,1631318.3363246792
2,2, 1, 2, 0,11, 0.00,60.00,Monday
12,363667709.8097224
60,147910754.35656002
281,152067690.79632002
1113,38940452.45959189
1212,24748812.19723598
1262,1631340.9393835664
1286,0.0
1312,0.0
1530,1631340.9393835664
2,2, 1, 2, 0,12, 0.00,60.00,Monday
12,365134834.7523207
60,147910754.35656002
281,152067690.79632002
1113,38940452.45959189
1212,26215937.139834248
1262,1631462.9817679077
1286,0.0
1312,0.0
1530,1631462.9817679077
2,2, 1, 2, 0,13, 0.00,60.00,Monday
12,347252956.8398268
60,147910754.35656002
281,135171280.70784006
1113,38940452.45959189
1212,25230469.315820362
1262,3190943.6155193923
1286,0.0
1312,0.0
1530,3190943.6155193923
2,2, 1, 2, 0,14, 0.00,60.00,Monday
12,365747428.80333626
60,147910754.35656002
281,152067690.79632002
1113,38940452.45959189
1212,26828531.190849803
1262,1631315.4479852126
1286,0.0
1312,0.0
1530,1631315.4479852126
2,2, 1, 2, 0,15, 0.00,60.00,Monday
12,365616774.1540496
60,147910754.35656002
281,152067690.79632002
1113,38940452.45959189
1212,26697876.541563187
1262,1631354.138171546
1286,0.0
1312,0.0
1530,1631354.138171546
2,2, 1, 2, 0,16, 0.00,60.00,Monday
12,366186275.74173236
60,147910754.35656002
281,152067690.79632002
1113,38940452.45959189
1212,27267378.12924602
1262,1631309.107098442
1286,0.0
1312,0.0
1530,1631309.107098442
2,2, 1, 2, 0,17, 0.00,60.00,Monday
12,372216987.5253851
60,147910754.35656002
281,152067690.79632002
1113,38940452.45959189
1212,27770889.912898667
1262,1631395.814004156
1286,0.0
1312,0.0
1530,1631395.814004156
2,2, 1, 2, 0,18, 0.00,60.00,Monday
12,231303588.8737554
60,82172641.3092
281,84482050.44240001
1113,38940452.45959189
1212,17417644.662548974
1262,1631177.4398935288
1286,0.0
1312,0.0
1530,1631177.4398935288
2,2, 1, 2, 0,19, 0.00,60.00,Monday
12,176381748.99395418
60,49303584.78552
281,67585640.35392003
1113,38940452.45959189
1212,12261271.394907739
1262,1631216.216811685
1286,0.0
1312,0.0
1530,1631216.216811685
2,2, 1, 2, 0,20, 0.00,60.00,Monday
12,175330765.7992052
60,49303584.78552
281,67585640.35392003
1113,38940452.45959189
1212,11210288.20015876
1262,1631146.7499375215
1286,0.0
1312,0.0
1530,1631146.7499375215
2,2, 1, 2, 0,21, 0.00,60.00,Monday
12,157708444.0992092
60,32869056.52368001
281,67585640.35392003
1113,38940452.45959189
1212,10022494.762002764
1262,1631106.4499018446
1286,0.0
1312,0.0
1530,1631106.4499018446
2,2, 1, 2, 0,22, 0.00,60.00,Monday
12,157277499.84973586
60,32869056.52368001
281,67585640.35392003
1113,38940452.45959189
1212,9591550.512529423
1262,72000.0
1286,0.0
1312,0.0
1530,72000.0
2,2, 1, 2, 0,23, 0.00,60.00,Monday
12,100156705.5212392
60,16434528.261840004
281,67585640.35392003
1113,6417384.186479881
1212,1428352.7189847827
1262,1631116.1545308873
1286,0.0
1312,0.0
1530,1631116.1545308873
2,2, 1, 2, 0,24, 0.00,60.00,Monday
12,95174733.11521012
60,8217264.130920002
281,67585640.35392003
1113,9167691.69497126
1212,1913336.9353843196
1262,1631086.307694029
1286,0.0
1312,0.0
1530,1631086.307694029
2,3, 1, 3, 0, 1, 0.00,60.00,Tuesday
12,93032132.84271148
60,8217264.130920002
281,67585640.35392003
1113,7334153.355977008
1212,1604275.0018799268
1262,72000.0
1286,0.0
1312,0.0
1530,72000.0
2,3, 1, 3, 0, 2, 0.00,60.00,Tuesday
12,95125955.78979172
60,8217264.130920002
281,67585640.35392003
1113,9167691.69497126
1212,1864559.6099659135
1262,1631078.699952827
1286,0.0
1312,0.0
1530,1631078.699952827
2,3, 1, 3, 0, 3, 0.00,60.00,Tuesday
12,93013364.1396901
60,8217264.130920002
281,67585640.35392003
1113,7334153.355977008
1212,1585506.298858554
1262,1631117.8670067224
1286,0.0
1312,0.0
1530,1631117.8670067224
2,3, 1, 3, 0, 4, 0.00,60.00,Tuesday
12,95100778.93714744
60,8217264.130920002
281,67585640.35392003
1113,9167691.69497126
1212,1839382.7573216364
1262,72000.0
1286,0.0
1312,0.0
1530,72000.0
2,3, 1, 3, 0, 5, 0.00,60.00,Tuesday
12,92928566.79392336
60,8217264.130920002
281,67585640.35392003
1113,7334153.355977008
1212,1500708.953091816
1262,1631113.7754549389
1286,0.0
1312,0.0
1530,1631113.7754549389
2,3, 1, 3, 0, 6, 0.00,60.00,Tuesday
12,103257529.35893273
60,16434528.261840004
281,67585640.35392003
1113,9167691.69497126
1212,1778869.048186936
1262,1631106.3408269493
1286,0.0
1312,0.0
1530,1631106.3408269493
2,3, 1, 3, 0, 7, 0.00,60.00,Tuesday
12,142354761.15297705
60,16434528.261840004
281,67585640.35392003
1113,38940452.45959189
1212,11103340.077610588
1262,72000.0
1286,0.0
1312,0.0
1530,72000.0
2,3, 1, 3, 0, 8, 0.00,60.00,Tuesday
12,165689126.7972598
60,49303584.78552
281,67585640.35392003
1113,38940452.45959189
1212,7095849.198213372
1262,1631108.9593656778
1286,0.0
1312,0.0
1530,1631108.9593656778
2,3, 1, 3, 0, 9, 0.00,60.00,Tuesday
12,358421941.1873475
60,147910754.35656002
281,152067690.79632002
1113,38940452.45959189
1212,19503043.57486108
1262,1631271.085648908
1286,0.0
1312,0.0
1530,1631271.085648908
2,3, 1, 3, 0,10, 0.00,60.00,Tuesday
12,361585069.9789666
60,147910754.35656002
281,152067690.79632002
1113,38940452.45959189
1212,22666172.366480146
1262,1631370.518222591
1286,0.0
1312,0.0
1530,1631370.518222591
2,3, 1, 3, 0,11, 0.00,60.00,Tuesday
12,363031783.53678524
60,147910754.35656002
281,152067690.79632002
1113,38940452.45959189
1212,24112885.924298786
1262,3190499.1165236663
1286,0.0
1312,0.0
1530,3190499.1165236663
2,3, 1, 3, 0,12, 0.00,60.00,Tuesday
12,364005267.08460367
60,147910754.35656002
281,152067690.79632002
1113,38940452.45959189
1212,25086369.472117268
1262,1631274.8621985542
1286,0.0
1312,0.0
1530,1631274.8621985542
2,3, 1, 3, 0,13, 0.00,60.00,Tuesday
12,346133095.68452543
60,147910754.35656002
281,135171280.70784006
1113,38940452.45959189
1212,24110608.160518948
1262,1631452.665818224
1286,0.0
1312,0.0
1530,1631452.665818224
2,3, 1, 3, 0,14, 0.00,60.00,Tuesday
12,365060564.0801383
60,147910754.35656002
281,152067690.79632002
1113,38940452.45959189
1212,26141666.467651926
1262,1631310.5224339906
1286,0.0
1312,0.0
1530,1631310.5224339906
2,3, 1, 3, 0,15, 0.00,60.00,Tuesday
12,365426516.36724377
60,147910754.35656002
281,152067690.79632002
1113,38940452.45959189
1212,26507618.754757356
1262,1631269.9933356121
1286,0.0
1312,0.0
1530,1631269.9933356121
2,3, 1, 3, 0,16, 0.00,60.00,Tuesday
12,365586175.4991367
60,147910754.35656002
281,152067690.79632002
1113,38940452.45959189
1212,26667277.88665025
1262,1631303.4787573107
1286,0.0
1312,0.0
1530,1631303.4787573107
2,3, 1, 3, 0,17, 0.00,60.00,Tuesday
12,371112466.14859694
60,147910754.35656002
281,152067690.79632002
1113,38940452.45959189
1212,26666368.536110558
1262,3190846.0088681215
1286,0.0
1312,0.0
1530,3190846.0088681215
2,3, 1, 3, 0,18, 0.00,60.00,Tuesday
12,230792391.32152727
60,82172641.3092
281,84482050.44240001
1113,38940452.45959189
1212,16906447.11032086
1262,1631247.1665091692
1286,0.0
1312,0.0
1530,1631247.1665091692
2,3, 1, 3, 0,19, 0.00,60.00,Tuesday
12,175821010.53749454
60,49303584.78552
281,67585640.35392003
1113,38940452.45959189
1212,11700532.938448114
1262,72000.0
1286,0.0
1312,0.0
1530,72000.0
2,3, 1, 3, 0,20, 0.00,60.00,Tuesday
12,174404977.26085714
60,49303584.78552
281,67585640.35392003
1113,38940452.45959189
1212,10284499.661810707
1262,1631192.6477538247
1286,0.0
1312,0.0
1530,1631192.6477538247
2,3, 1, 3, 0,21, 0.00,60.00,Tuesday
12,156547486.27387127
60,32869056.52368001
281,67585640.35392003
1113,38940452.45959189
1212,8861536.936664822
1262,1631136.705976528
1286,0.0
1312,0.0
1530,1631136.705976528
2,3, 1, 3, 0,22, 0.00,60.00,Tuesday
12,155859942.38174874
60,32869056.52368001
281,67585640.35392003
1113,38940452.45959189
1212,8173993.044542305
1262,1631098.7109585796
1286,0.0
1312,0.0
1530,1631098.7109585796
2,3, 1, 3, 0,23, 0.00,60.00,Tuesday
12,99476544.08913653
60,16434528.261840004
281,67585640.35392003
1113,5958999.601731319
1212,1206575.8716306647
1262,72000.0
1286,0.0
1312,0.0
1530,72000.0
2,3, 1, 3, 0,24, 0.00,60.00,Tuesday
12,95042430.43189272
60,8217264.130920002
281,67585640.35392003
1113,9167691.69497126
1212,1781034.2520669077
1262,1631085.54636196
1286,0.0
1312,0.0
1530,1631085.54636196
2,4, 1, 4, 0, 1, 0.00,60.00,Wednesday
12,92903022.59967452
60,8217264.130920002
281,67585640.35392003
1113,7334153.355977008
1212,1475164.7588429537
1262,1631078.0318650398
1286,0.0
1312,0.0
1530,1631078.0318650398
2,4, 1, 4, 0, 2, 0.00,60.00,Wednesday
12,94980982.30862714
60,8217264.130920002
281,67585640.35392003
1113,9167691.69497126
1212,1719586.1288013468
1262,72000.0
1286,0.0
1312,0.0
1530,72000.0
2,4, 1, 4, 0, 3, 0.00,60.00,Wednesday
12,92857554.71811034
60,8217264.130920002
281,67585640.35392003
1113,7334153.355977008
1212,1429696.8772787852
1262,1631118.1154865283
1286,0.0
1312,0.0
1530,1631118.1154865283
2,4, 1, 4, 0, 4, 0.00,60.00,Wednesday
12,94919443.071739
60,8217264.130920002
281,67585640.35392003
1113,9167691.69497126
1212,1658046.8919131928
1262,1631113.6086570667
1286,0.0
1312,0.0
1530,1631113.6086570667
2,4, 1, 4, 0, 5, 0.00,60.00,Wednesday
12,92790584.7811428
60,8217264.130920002
281,67585640.35392003
1113,7334153.355977008
1212,1362726.9403112496
1262,72000.0
1286,0.0
1312,0.0
1530,72000.0
2,4, 1, 4, 0, 6, 0.00,60.00,Wednesday
12,103162837.79422292
60,16434528.261840004
281,67585640.35392003
1113,9167691.69497126
1212,1684177.4834771308
1262,1631078.5696264706
1286,0.0
1312,0.0
1530,1631078.5696264706
2,4, 1, 4, 0, 7, 0.00,60.00,Wednesday
12,142039663.0109496
60,16434528.261840004
281,67585640.35392003
1113,38940452.45959189
1212,10788241.935583178
1262,1631115.3453168378
1286,0.0
1312,0.0
1530,1631115.3453168378
2,4, 1, 4, 0, 8, 0.00,60.00,Wednesday
12,165664416.75582522
60,49303584.78552
281,67585640.35392003
1113,38940452.45959189
1212,7071139.156778814
1262,1631123.731306874
1286,0.0
1312,0.0
1530,1631123.731306874
2,4, 1, 4, 0, 9, 0.00,60.00,Wednesday
12,358842392.7326556
60,147910754.35656002
281,152067690.79632002
1113,38940452.45959189
1212,19923495.12016915
1262,1631242.642527367
1286,0.0
1312,0.0
1530,1631242.642527367
2,4, 1, 4, 0,10, 0.00,60.00,Wednesday
12,362474551.7078735
60,147910754.35656002
281,152067690.79632002
1113,38940452.45959189
1212,23555654.09538708
1262,1631373.9134653343
1286,0.0
1312,0.0
1530,1631373.9134653343
2,4, 1, 4, 0,11, 0.00,60.00,Wednesday
12,363969959.477897
60,147910754.35656002
281,152067690.79632002
1113,38940452.45959189
1212,25051061.865410555
1262,1631400.494956232
1286,0.0
1312,0.0
1530,1631400.494956232
2,4, 1, 4, 0,12, 0.00,60.00,Wednesday
12,364948919.02972347
60,147910754.35656002
281,152067690.79632002
1113,38940452.45959189
1212,26030021.417237073
1262,1631318.9357801955
1286,0.0
1312,0.0
1530,1631318.9357801955
2,4, 1, 4, 0,13, 0.00,60.00,Wednesday
12,347117415.68663687
60,147910754.35656002
281,135171280.70784006
1113,38940452.45959189
1212,25094928.16263043
1262,3190786.229491138
1286,0.0
1312,0.0
1530,3190786.229491138
2,4, 1, 4, 0,14, 0.00,60.00,Wednesday
12,366091612.1268967
60,147910754.35656002
281,152067690.79632002
1113,38940452.45959189
1212,27172714.514410205
1262,1631433.5021077688
1286,0.0
1312,0.0
1530,1631433.5021077688
2,4, 1, 4, 0,15, 0.00,60.00,Wednesday
12,366312355.08901834
60,147910754.35656002
281,152067690.79632002
1113,38940452.45959189
1212,27393457.476531938
1262,1631230.25530246
1286,0.0
1312,0.0
1530,1631230.25530246
2,4, 1, 4, 0,16, 0.00,60.00,Wednesday
12,366324921.0847334
60,147910754.35656002
281,152067690.79632002
1113,38940452.45959189
1212,27406023.47224699
1262,1631284.1607974023
1286,0.0
1312,0.0
1530,1631284.1607974023
2,4, 1, 4, 0,17, 0.00,60.00,Wednesday
12,371313055.3143719
60,147910754.35656002
281,152067690.79632002
1113,38940452.45959189
1212,26866957.701885503
1262,1631384.2151023038
1286,0.0
1312,0.0
1530,1631384.2151023038
2,4, 1, 4, 0,18, 0.00,60.00,Wednesday
12,230346849.38572136
60,82172641.3092
281,84482050.44240001
1113,38940452.45959189
1212,16460905.174514936
1262,1631242.4309481413
1286,0.0
1312,0.0
1530,1631242.4309481413
2,4, 1, 4, 0,19, 0.00,60.00,Wednesday
12,175048367.81446862
60,49303584.78552
281,67585640.35392003
1113,38940452.45959189
1212,10927890.215422219
1262,1631103.9034467235
1286,0.0
1312,0.0
1530,1631103.9034467235
2,4, 1, 4, 0,20, 0.00,60.00,Wednesday
12,173516357.28520152
60,49303584.78552
281,67585640.35392003
1113,38940452.45959189
1212,9395879.686155086
1262,1631172.611895485
1286,0.0
1312,0.0
1530,1631172.611895485
2,4, 1, 4, 0,21, 0.00,60.00,Wednesday
12,155789459.09028658
60,32869056.52368001
281,67585640.35392003
1113,38940452.45959189
1212,8103509.753080158
1262,1631138.6901670364
1286,0.0
1312,0.0
1530,1631138.6901670364
2,4, 1, 4, 0,22, 0.00,60.00,Wednesday
12,155086812.25641215
60,32869056.52368001
281,67585640.35392003
1113,38940452.45959189
1212,7400862.919205713
1262,72000.0
1286,0.0
1312,0.0
1530,72000.0
2,4, 1, 4, 0,23, 0.00,60.00,Wednesday
12,98798845.41044648
60,16434528.261840004
281,67585640.35392003
1113,5500615.016982757
1212,987261.7776891957
1262,1631114.1655281936
1286,0.0
1312,0.0
1530,1631114.1655281936
2,4, 1, 4, 0,24, 0.00,60.00,Wednesday
12,94897388.91137557
60,8217264.130920002
281,67585640.35392003
1113,9167691.69497126
1212,1635992.731549759
1262,1631091.486695878
1286,0.0
1312,0.0
1530,1631091.486695878
2,5, 1, 5, 0, 1, 0.00,60.00,Thursday
12,92655340.6738024
60,8217264.130920002
281,67585640.35392003
1113,7334153.355977008
1212,1227482.8329708572
1262,72000.0
1286,0.0
1312,0.0
1530,72000.0
2,5, 1, 5, 0, 2, 0.00,60.00,Thursday
12,94811941.85283704
60,8217264.130920002
281,67585640.35392003
1113,9167691.69497126
1212,1550545.6730112468
1262,1631084.3033314415
1286,0.0
1312,0.0
1530,1631084.3033314415
2,5, 1, 5, 0, 3, 0.00,60.00,Thursday
12,92620725.88228096
60,8217264.130920002
281,67585640.35392003
1113,7334153.355977008
1212,1192868.0414493962
1262,1631090.0909093455
1286,0.0
1312,0.0
1530,1631090.0909093455
2,5, 1, 5, 0, 4, 0.00,60.00,Thursday
12,90480149.66740605
60,8217264.130920002
281,67585640.35392003
1113,5500615.016982757
1212,885830.1655687345
1262,72000.0
1286,0.0
1312,0.0
1530,72000.0
2,5, 1, 5, 0, 5, 0.00,60.00,Thursday
12,84093704.48485455
60,8217264.130920002
281,67585640.35392003
1113,0.0
1212,0.0
1262,1631084.4740382996
1286,0.0
1312,0.0
1530,1631084.4740382996
2,5, 1, 5, 0, 6, 0.00,60.00,Thursday
12,92310968.61577456
60,16434528.261840004
281,67585640.35392003
1113,0.0
1212,0.0
1262,1631128.9144636095
1286,0.0
1312,0.0
1530,1631128.9144636095
2,5, 1, 5, 0, 7, 0.00,60.00,Thursday
12,139774786.66203952
60,16434528.261840004
281,67585640.35392003
1113,38940452.45959189
1212,8523365.586673088
1262,72000.0
1286,0.0
1312,0.0
1530,72000.0
2,5, 1, 5, 0, 8, 0.00,60.00,Thursday
12,162411368.17056426
60,49303584.78552
281,67585640.35392003
1113,38940452.45959189
1212,3818090.5715178177
1262,1631157.2049460832
1286,0.0
1312,0.0
1530,1631157.2049460832
2,5, 1, 5, 0, 9, 0.00,60.00,Thursday
12,355362740.05979115
60,147910754.35656002
281,152067690.79632002
1113,38940452.45959189
1212,16443842.447304761
1262,1631361.7890597743
1286,0.0
1312,0.0
1530,1631361.7890597743
2,5, 1, 5, 0,10, 0.00,60.00,Thursday
12,359417908.9831918
60,147910754.35656002
281,152067690.79632002
1113,38940452.45959189
1212,20499011.370705396
1262,1631373.2680690053
1286,0.0
1312,0.0
1530,1631373.2680690053
2,5, 1, 5, 0,11, 0.00,60.00,Thursday
12,361416955.7080538
60,147910754.35656002
281,152067690.79632002
1113,38940452.45959189
1212,22498058.095567428
1262,1631401.834971813
1286,0.0
1312,0.0
1530,1631401.834971813
2,5, 1, 5, 0,12, 0.00,60.00,Thursday
12,362674347.3177586
60,147910754.35656002
281,152067690.79632002
1113,38940452.45959189
1212,23755449.7052722
1262,3190880.5385214323
1286,0.0
1312,0.0
1530,3190880.5385214323
2,5, 1, 5, 0,13, 0.00,60.00,Thursday
12,345083920.4918559
60,147910754.35656002
281,135171280.70784006
1113,38940452.45959189
1212,23061432.967849497
1262,1631350.1829574576
1286,0.0
1312,0.0
1530,1631350.1829574576
2,5, 1, 5, 0,14, 0.00,60.00,Thursday
12,364262765.17009264
60,147910754.35656002
281,152067690.79632002
1113,38940452.45959189
1212,25343867.557606194
1262,1631461.565744491
1286,0.0
1312,0.0
1530,1631461.565744491
2,5, 1, 5, 0,15, 0.00,60.00,Thursday
12,365138911.34197205
60,147910754.35656002
281,152067690.79632002
1113,38940452.45959189
1212,26220013.72948569
1262,1631355.0725252803
1286,0.0
1312,0.0
1530,1631355.0725252803
2,5, 1, 5, 0,16, 0.00,60.00,Thursday
12,365253076.18537813
60,147910754.35656002
281,152067690.79632002
1113,38940452.45959189
1212,26334178.572891746
1262,1631316.7258788538
1286,0.0
1312,0.0
1530,1631316.7258788538
2,5, 1, 5, 0,17, 0.00,60.00,Thursday
12,370161015.5948445
60,147910754.35656002
281,152067690.79632002
1113,38940452.45959189
1212,25714917.98235808
1262,3190777.936811121
1286,0.0
1312,0.0
1530,3190777.936811121
2,5, 1, 5, 0,18, 0.00,60.00,Thursday
12,229583591.9915767
60,82172641.3092
281,84482050.44240001
1113,38940452.45959189
1212,15697647.780370317
1262,1631163.8397862061
1286,0.0
1312,0.0
1530,1631163.8397862061
2,5, 1, 5, 0,19, 0.00,60.00,Thursday
12,174561337.2187755
60,49303584.78552
281,67585640.35392003
1113,38940452.45959189
1212,10440859.619729074
1262,72000.0
1286,0.0
1312,0.0
1530,72000.0
2,5, 1, 5, 0,20, 0.00,60.00,Thursday
12,172943157.33431974
60,49303584.78552
281,67585640.35392003
1113,38940452.45959189
1212,8822679.735273318
1262,1631114.7508772213
1286,0.0
1312,0.0
1530,1631114.7508772213
2,5, 1, 5, 0,21, 0.00,60.00,Thursday
12,154853420.8364185
60,32869056.52368001
281,67585640.35392003
1113,38940452.45959189
1212,7167471.499212093
1262,1631198.1626440457
1286,0.0
1312,0.0
1530,1631198.1626440457
2,5, 1, 5, 0,22, 0.00,60.00,Thursday
12,153928082.05482003
60,32869056.52368001
281,67585640.35392003
1113,38940452.45959189
1212,6242132.7176135965
1262,1631024.8849160986
1286,0.0
1312,0.0
1530,1631024.8849160986
2,5, 1, 5, 0,23, 0.00,60.00,Thursday
12,98744566.38753748
60,16434528.261840004
281,67585640.35392003
1113,5500615.016982757
1212,932982.7547801782
1262,72000.0
1286,0.0
1312,0.0
1530,72000.0
2,5, 1, 5, 0,24, 0.00,60.00,Thursday
12,90483352.09402248
60,8217264.130920002
281,67585640.35392003
1113,5500615.016982757
1212,889032.5921851808
1262,1631081.9629974556
1286,0.0
1312,0.0
1530,1631081.9629974556
2,6, 1, 6, 0, 1, 0.00,60.00,Friday
12,90461606.70260625
60,8217264.130920002
281,67585640.35392003
1113,5500615.016982757
1212,867287.2007689478
1262,1631076.3763289899
1286,0.0
1312,0.0
1530,1631076.3763289899
2,6, 1, 6, 0, 2, 0.00,60.00,Friday
12,84093704.48485455
60,8217264.130920002
281,67585640.35392003
1113,0.0
1212,0.0
1262,72000.0
1286,0.0
1312,0.0
1530,72000.0
2,6, 1, 6, 0, 3, 0.00,60.00,Friday
12,84093704.48485455
60,8217264.130920002
281,67585640.35392003
1113,0.0
1212,0.0
1262,1631104.1179276796
1286,0.0
1312,0.0
1530,1631104.1179276796
2,6, 1, 6, 0, 4, 0.00,60.00,Friday
12,84093704.48485455
60,8217264.130920002
281,67585640.35392003
1113,0.0
1212,0.0
1262,1631097.4004233635
1286,0.0
1312,0.0
1530,1631097.4004233635
2,6, 1, 6, 0, 5, 0.00,60.00,Friday
12,84093704.48485455
60,8217264.130920002
281,67585640.35392003
1113,0.0
1212,0.0
1262,72000.0
1286,0.0
1312,0.0
1530,72000.0
2,6, 1, 6, 0, 6, 0.00,60.00,Friday
12,92310968.61577456
60,16434528.261840004
281,67585640.35392003
1113,0.0
1212,0.0
1262,1631121.9022692207
1286,0.0
1312,0.0
1530,1631121.9022692207
2,6, 1, 6, 0, 7, 0.00,60.00,Friday
12,139154858.7397495
60,16434528.261840004
281,67585640.35392003
1113,38940452.45959189
1212,7903437.664383067
1262,1631046.0086736449
1286,0.0
1312,0.0
1530,1631046.0086736449
2,6, 1, 6, 0, 8, 0.00,60.00,Friday
12,161961328.17437196
60,49303584.78552
281,67585640.35392003
1113,38940452.45959189
1212,3368050.575325529
1262,1631195.864879859
1286,0.0
1312,0.0
1530,1631195.864879859
2,6, 1, 6, 0, 9, 0.00,60.00,Friday
12,354837899.49622315
60,147910754.35656002
281,152067690.79632002
1113,38940452.45959189
1212,15919001.883736752
1262,1631366.3026730104
1286,0.0
1312,0.0
1530,1631366.3026730104
2,6, 1, 6, 0,10, 0.00,60.00,Friday
12,358686444.93025494
60,147910754.35656002
281,152067690.79632002
1113,38940452.45959189
1212,19767547.317768525
1262,1631375.5082099421
1286,0.0
1312,0.0
1530,1631375.5082099421
2,6, 1, 6, 0,11, 0.00,60.00,Friday
12,360077037.8447082
60,147910754.35656002
281,152067690.79632002
1113,38940452.45959189
1212,21158140.232221782
1262,1631336.3578064453
1286,0.0
1312,0.0
1530,1631336.3578064453
2,6, 1, 6, 0,12, 0.00,60.00,Friday
12,360355091.77549565
60,147910754.35656002
281,152067690.79632002
1113,38940452.45959189
1212,21436194.163009197
1262,1631246.4870518728
1286,0.0
1312,0.0
1530,1631246.4870518728
2,6, 1, 6, 0,13, 0.00,60.00,Friday
12,342164205.3444495
60,147910754.35656002
281,135171280.70784006
1113,38940452.45959189