Program Version,EnergyPlus, Version 25.1.0-68a4a7c774, YMD=2025.10.28 18:22
1,5,Environment Title[],Latitude[deg],Longitude[deg],Time Zone[],Elevation[m]
2,8,Day of Simulation[],Month[],Day of Month[],DST Indicator[1=yes 0=no],Hour[],StartMinute[],EndMinute[],DayType
3,5,Cumulative Day of Simulation[],Month[],Day of Month[],DST Indicator[1=yes 0=no],DayType  ! When Daily Meters Requested
4,2,Cumulative Days of Simulation[],Month[]  ! When Monthly Meters Requested
5,1,Cumulative Days of Simulation[] ! When Run Period Meters Requested
6,1,Calendar Year of Simulation[] ! When Annual Meters Requested
12,1,Electricity:Facility [J] !Hourly
1113,1,Fans:Electricity [J] !Hourly
1212,1,Cooling:Electricity [J] !Hourly
1312,1,Heating:Electricity [J] !Hourly
60,1,InteriorLights:Electricity [J] !Hourly
281,1,InteriorEquipment:Electricity [J] !Hourly
1262,1,NaturalGas:Facility [J] !Hourly
1286,1,Heating:NaturalGas [J] !Hourly
1530,1,Water Heater:WaterSystems:NaturalGas [J] !Hourly
14,9,Electricity:Facility [J] !Monthly [Value,Min,Day,Hour,Minute,Max,Day,Hour,Minute]
1264,9,NaturalGas:Facility [J] !Monthly [Value,Min,Day,Hour,Minute,Max,Day,Hour,Minute]
1360,9,Water:Facility [m3] !Monthly [Value,Min,Day,Hour,Minute,Max,Day,Hour,Minute]
462,9,EnergyTransfer:Facility [J] !Monthly [Value,Min,Day,Hour,Minute,Max,Day,Hour,Minute]
955,9,ElectricityPurchased:Facility [J] !Monthly [Value,Min,Day,Hour,Minute,Max,Day,Hour,Minute]
1004,9,ElectricitySurplusSold:Facility [J] !Monthly [Value,Min,Day,Hour,Minute,Max,Day,Hour,Minute]
1053,9,ElectricityNet:Facility [J] !Monthly [Value,Min,Day,Hour,Minute,Max,Day,Hour,Minute]
2287,9,Carbon Equivalent:Facility [kg] !Monthly [Value,Min,Day,Hour,Minute,Max,Day,Hour,Minute]
906,9,PlantLoopHeatingDemand:Facility [J] !Monthly [Value,Min,Day,Hour,Minute,Max,Day,Hour,Minute]
1409,9,MainsWater:Facility [m3] !Monthly [Value,Min,Day,Hour,Minute,Max,Day,Hour,Minute]
1965,9,WaterEnvironmentalFactors:Facility [L] !Monthly [Value,Min,Day,Hour,Minute,Max,Day,Hour,Minute]
1615,9,Source:Facility [J] !Monthly [Value,Min,Day,Hour,Minute,Max,Day,Hour,Minute]
1765,9,SO2:Facility [kg] !Monthly [Value,Min,Day,Hour,Minute,Max,Day,Hour,Minute]
1715,9,NOx:Facility [kg] !Monthly [Value,Min,Day,Hour,Minute,Max,Day,Hour,Minute]
1740,9,N2O:Facility [kg] !Monthly [Value,Min,Day,Hour,Minute,Max,Day,Hour,Minute]
1790,9,PM:Facility [kg] !Monthly [Value,Min,Day,Hour,Minute,Max,Day,Hour,Minute]
1840,9,PM2.5:Facility [kg] !Monthly [Value,Min,Day,Hour,Minute,Max,Day,Hour,Minute]
1815,9,PM10:Facility [kg] !Monthly [Value,Min,Day,Hour,Minute,Max,Day,Hour,Minute]
1665,9,CO:Facility [kg] !Monthly [Value,Min,Day,Hour,Minute,Max,Day,Hour,Minute]
1640,9,CO2:Facility [kg] !Monthly [Value,Min,Day,Hour,Minute,Max,Day,Hour,Minute]
1690,9,CH4:Facility [kg] !Monthly [Value,Min,Day,Hour,Minute,Max,Day,Hour,Minute]
1865,9,NH3:Facility [kg] !Monthly [Value,Min,Day,Hour,Minute,Max,Day,Hour,Minute]
1890,9,NMVOC:Facility [kg] !Monthly [Value,Min,Day,Hour,Minute,Max,Day,Hour,Minute]
1915,9,Hg:Facility [kg] !Monthly [Value,Min,Day,Hour,Minute,Max,Day,Hour,Minute]
1940,9,Pb:Facility [kg] !Monthly [Value,Min,Day,Hour,Minute,Max,Day,Hour,Minute]
1990,9,Nuclear High:Facility [kg] !Monthly [Value,Min,Day,Hour,Minute,Max,Day,Hour,Minute]
2015,9,Nuclear Low:Facility [m3] !Monthly [Value,Min,Day,Hour,Minute,Max,Day,Hour,Minute]
End of Data Dictionary
1,ANNUAL,  41.98, -87.92,  -6.00, 201.00
2,1, 1, 1, 0, 1, 0.00,60.00,Holiday
12,67332546.64441456
60,9335165.36472
281,49706581.279680006
1113,0.0
1212,0.0
1262,72000.0
1286,0.0
1312,0.0
1530,72000.0
2,1, 1, 1, 0, 2, 0.00,60.00,Holiday
12,67332546.64441456
60,9335165.36472
281,49706581.279680006
1113,0.0
1212,0.0
1262,1631084.0613433796
1286,0.0
1312,0.0
1530,1631084.0613433796
2,1, 1, 1, 0, 3, 0.00,60.00,Holiday
12,67332546.64441456
60,9335165.36472
281,49706581.279680006
1113,0.0
1212,0.0
1262,72000.0
1286,0.0
1312,0.0
1530,72000.0
2,1, 1, 1, 0, 4, 0.00,60.00,Holiday
12,67332546.64441456
60,9335165.36472
281,49706581.279680006
1113,0.0
1212,0.0
1262,1631044.83184318
1286,0.0
1312,0.0
1530,1631044.83184318
2,1, 1, 1, 0, 5, 0.00,60.00,Holiday
12,67332546.64441456
60,9335165.36472
281,49706581.279680006
1113,0.0
1212,0.0
1262,1631017.9219451451
1286,0.0
1312,0.0
1530,1631017.9219451451
2,1, 1, 1, 0, 6, 0.00,60.00,Holiday
12,67332546.64441456
60,9335165.36472
281,49706581.279680006
1113,0.0
1212,0.0
1262,72000.0
1286,0.0
1312,0.0
1530,72000.0
2,1, 1, 1, 0, 7, 0.00,60.00,Holiday
12,67332546.64441456
60,9335165.36472
281,49706581.279680006
1113,0.0
1212,0.0
1262,1631030.86192308
1286,0.0
1312,0.0
1530,1631030.86192308
2,1, 1, 1, 0, 8, 0.00,60.00,Holiday
12,61805346.64441456
60,9335165.36472
281,49706581.279680006
1113,0.0
1212,0.0
1262,1631001.9957434756
1286,0.0
1312,0.0
1530,1631001.9957434756
2,1, 1, 1, 0, 9, 0.00,60.00,Holiday
12,59041746.64441456
60,9335165.36472
281,49706581.279680006
1113,0.0
1212,0.0
1262,72000.0
1286,0.0
1312,0.0
1530,72000.0
2,1, 1, 1, 0,10, 0.00,60.00,Holiday
12,59041746.64441456
60,9335165.36472
281,49706581.279680006
1113,0.0
1212,0.0
1262,1631096.8712055262
1286,0.0
1312,0.0
1530,1631096.8712055262
2,1, 1, 1, 0,11, 0.00,60.00,Holiday
12,59041746.64441456
60,9335165.36472
281,49706581.279680006
1113,0.0
1212,0.0
1262,1631101.7998689197
1286,0.0
1312,0.0
1530,1631101.7998689197
2,1, 1, 1, 0,12, 0.00,60.00,Holiday
12,59041746.64441456
60,9335165.36472
281,49706581.279680006
1113,0.0
1212,0.0
1262,72000.0
1286,0.0
1312,0.0
1530,72000.0
2,1, 1, 1, 0,13, 0.00,60.00,Holiday
12,59041746.64441456
60,9335165.36472
281,49706581.279680006
1113,0.0
1212,0.0
1262,1631069.4169715513
1286,0.0
1312,0.0
1530,1631069.4169715513
2,1, 1, 1, 0,14, 0.00,60.00,Holiday
12,59041746.64441456
60,9335165.36472
281,49706581.279680006
1113,0.0
1212,0.0
1262,1631130.2131402455
1286,0.0
1312,0.0
1530,1631130.2131402455
2,1, 1, 1, 0,15, 0.00,60.00,Holiday
12,59041746.64441456
60,9335165.36472
281,49706581.279680006
1113,0.0
1212,0.0
1262,72000.0
1286,0.0
1312,0.0
1530,72000.0
2,1, 1, 1, 0,16, 0.00,60.00,Holiday
12,59041746.64441456
60,9335165.36472
281,49706581.279680006
1113,0.0
1212,0.0
1262,1631007.796106263
1286,0.0
1312,0.0
1530,1631007.796106263
2,1, 1, 1, 0,17, 0.00,60.00,Holiday
12,64568946.64441456
60,9335165.36472
281,49706581.279680006
1113,0.0
1212,0.0
1262,1631092.1268897823
1286,0.0
1312,0.0
1530,1631092.1268897823
2,1, 1, 1, 0,18, 0.00,60.00,Holiday
12,67332546.64441456
60,9335165.36472
281,49706581.279680006
1113,0.0
1212,0.0
1262,72000.0
1286,0.0
1312,0.0
1530,72000.0
2,1, 1, 1, 0,19, 0.00,60.00,Holiday
12,67332546.64441456
60,9335165.36472
281,49706581.279680006
1113,0.0
1212,0.0
1262,1631055.3719854685
1286,0.0
1312,0.0
1530,1631055.3719854685
2,1, 1, 1, 0,20, 0.00,60.00,Holiday
12,67332546.64441456
60,9335165.36472
281,49706581.279680006
1113,0.0
1212,0.0
1262,1631028.6377857488
1286,0.0
1312,0.0
1530,1631028.6377857488
2,1, 1, 1, 0,21, 0.00,60.00,Holiday
12,67332546.64441456
60,9335165.36472
281,49706581.279680006
1113,0.0
1212,0.0
1262,72000.0
1286,0.0
1312,0.0
1530,72000.0
2,1, 1, 1, 0,22, 0.00,60.00,Holiday
12,67332546.64441456
60,9335165.36472
281,49706581.279680006
1113,0.0
1212,0.0
1262,1631030.9771789259
1286,0.0
1312,0.0
1530,1631030.9771789259
2,1, 1, 1, 0,23, 0.00,60.00,Holiday
12,67332546.64441456
60,9335165.36472
281,49706581.279680006
1113,0.0
1212,0.0
1262,1631012.5070630459
1286,0.0
1312,0.0
1530,1631012.5070630459
2,1, 1, 1, 0,24, 0.00,60.00,Holiday
12,67332546.64441456
60,9335165.36472
281,49706581.279680006
1113,0.0
1212,0.0
1262,72000.0
1286,0.0
1312,0.0
1530,72000.0
2,2, 1, 2, 0, 1, 0.00,60.00,Monday
12,83901407.07097454
60,9335165.36472
281,66275441.706240006
1113,0.0
1212,0.0
1262,1631099.5283406682
1286,0.0
1312,0.0
1530,1631099.5283406682
2,2, 1, 2, 0, 2, 0.00,60.00,Monday
12,83901407.07097454
60,9335165.36472
281,66275441.706240006
1113,0.0
1212,0.0
1262,1631092.0177235294
1286,0.0
1312,0.0
1530,1631092.0177235294
2,2, 1, 2, 0, 3, 0.00,60.00,Monday
12,83901407.07097454
60,9335165.36472
281,66275441.706240006
1113,0.0
1212,0.0
1262,72000.0
1286,0.0
1312,0.0
1530,72000.0
2,2, 1, 2, 0, 4, 0.00,60.00,Monday
12,83901407.07097454
60,9335165.36472
281,66275441.706240006
1113,0.0
1212,0.0
1262,1631084.45237911
1286,0.0
1312,0.0
1530,1631084.45237911
2,2, 1, 2, 0, 5, 0.00,60.00,Monday
12,83901407.07097454
60,9335165.36472
281,66275441.706240006
1113,0.0
1212,0.0
1262,1631076.8200953235
1286,0.0
1312,0.0
1530,1631076.8200953235
2,2, 1, 2, 0, 6, 0.00,60.00,Monday
12,93236572.43569456
60,18670330.72944
281,66275441.706240006
1113,0.0
1212,0.0
1262,72000.0
1286,0.0
1312,0.0
1530,72000.0
2,2, 1, 2, 0, 7, 0.00,60.00,Monday
12,141924218.57800293
60,18670330.72944
281,66275441.706240006
1113,40841387.88043856
1212,7846258.261869831
1262,1631021.7530138374
1286,0.0
1312,0.0
1530,1631021.7530138374
2,2, 1, 2, 0, 8, 0.00,60.00,Monday
12,171656697.933932
60,56010992.18832
281,66275441.706240006
1113,40841387.88043856
1212,5765276.158918905
1262,1631112.4933438736
1286,0.0
1312,0.0
1530,1631112.4933438736
2,2, 1, 2, 0, 9, 0.00,60.00,Monday
12,377507580.69708014
60,168032976.56496
281,149119743.83904
1113,40841387.88043856
1212,19513472.41262689
1262,1631189.7216858272
1286,0.0
1312,0.0
1530,1631189.7216858272
2,2, 1, 2, 0,10, 0.00,60.00,Monday
12,382060442.34650654
60,168032976.56496
281,149119743.83904
1113,40841387.88043856
1212,24066334.062053323
1262,1631318.3363246792
1286,0.0
1312,0.0
1530,1631318.3363246792
2,2, 1, 2, 0,11, 0.00,60.00,Monday
12,384501149.86952055
60,168032976.56496
281,149119743.83904
1113,40841387.88043856
1212,26507041.58506736
1262,1631340.9393835664
1286,0.0
1312,0.0
1530,1631340.9393835664
2,2, 1, 2, 0,12, 0.00,60.00,Monday
12,386061426.77214324
60,168032976.56496
281,149119743.83904
1113,40841387.88043856
1212,28067318.4876901
1262,1631462.9817679077
1286,0.0
1312,0.0
1530,1631462.9817679077
2,2, 1, 2, 0,13, 0.00,60.00,Monday
12,368587839.3798182
60,168032976.56496
281,132550883.41248001
1113,40841387.88043856
1212,27162591.521924946
1262,3190943.6155193923
1286,0.0
1312,0.0
1530,3190943.6155193923
2,2, 1, 2, 0,14, 0.00,60.00,Monday
12,386746329.36001635
60,168032976.56496
281,149119743.83904
1113,40841387.88043856
1212,28752221.075563148
1262,1631315.4479852126
1286,0.0
1312,0.0
1530,1631315.4479852126
2,2, 1, 2, 0,15, 0.00,60.00,Monday
12,386617067.28570807
60,168032976.56496
281,149119743.83904
1113,40841387.88043856
1212,28622959.001254845
1262,1631354.138171546
1286,0.0
1312,0.0
1530,1631354.138171546
2,2, 1, 2, 0,16, 0.00,60.00,Monday
12,387226779.3533818
60,168032976.56496
281,149119743.83904
1113,40841387.88043856
1212,29232671.068928577
1262,1631309.107098442
1286,0.0
1312,0.0
1530,1631309.107098442
2,2, 1, 2, 0,17, 0.00,60.00,Monday
12,393295464.61151993
60,168032976.56496
281,149119743.83904
1113,40841387.88043856
1212,29774156.32706677
1262,1631395.814004156
1286,0.0
1312,0.0
1530,1631395.814004156
2,2, 1, 2, 0,18, 0.00,60.00,Monday
12,244285548.89662728
60,93351653.6472
281,82844302.13280003
1113,40841387.88043856
1212,18957405.23617409
1262,1631177.4398935288
1286,0.0
1312,0.0
1530,1631177.4398935288
2,2, 1, 2, 0,19, 0.00,60.00,Monday
12,184808859.9458657
60,56010992.18832
281,66275441.706240006
1113,40841387.88043856
1212,13390238.170852583
1262,1631216.216811685
1286,0.0
1312,0.0
1530,1631216.216811685
2,2, 1, 2, 0,20, 0.00,60.00,Monday
12,183631582.29991505
60,56010992.18832
281,66275441.706240006
1113,40841387.88043856
1212,12212960.524901928
1262,1631146.7499375215
1286,0.0
1312,0.0
1530,1631146.7499375215
2,2, 1, 2, 0,21, 0.00,60.00,Monday
12,163584955.3227726
60,37340661.45888
281,66275441.706240006
1113,40841387.88043856
1212,10836664.277199475
1262,1631106.4499018446
1286,0.0
1312,0.0
1530,1631106.4499018446
2,2, 1, 2, 0,22, 0.00,60.00,Monday
12,163088103.06872255
60,37340661.45888
281,66275441.706240006
1113,40841387.88043856
1212,10339812.023149433
1262,72000.0
1286,0.0
1312,0.0
1530,72000.0
2,2, 1, 2, 0,23, 0.00,60.00,Monday
12,101503334.8612181
60,18670330.72944
281,66275441.706240006
1113,6744432.174280008
1212,1522330.2512435392
1262,1631116.1545308873
1286,0.0
1312,0.0
1530,1631116.1545308873
2,2, 1, 2, 0,24, 0.00,60.00,Monday
12,95562006.20662665
60,9335165.36472
281,66275441.706240006
1113,9634903.106114298
1212,2025696.0295378142
1262,1631086.307694029
1286,0.0
1312,0.0
1530,1631086.307694029
2,3, 1, 3, 0, 1, 0.00,60.00,Tuesday
12,93296037.66868281
60,9335165.36472
281,66275441.706240006
1113,7707922.484891439
1212,1686708.1128168127
1262,72000.0
1286,0.0
1312,0.0
1530,72000.0
2,3, 1, 3, 0, 2, 0.00,60.00,Tuesday
12,95495045.41467175
60,9335165.36472
281,66275441.706240006
1113,9634903.106114298
1212,1958735.2375829113
1262,1631078.699952827
1286,0.0
1312,0.0
1530,1631078.699952827
2,3, 1, 3, 0, 3, 0.00,60.00,Tuesday
12,93266639.66991597
60,9335165.36472
281,66275441.706240006
1113,7707922.484891439
1212,1657310.1140499774
1262,1631117.8670067224
1286,0.0
1312,0.0
1530,1631117.8670067224
2,3, 1, 3, 0, 4, 0.00,60.00,Tuesday
12,95458116.58914952
60,9335165.36472
281,66275441.706240006
1113,9634903.106114298
1212,1921806.4120606633
1262,72000.0
1286,0.0
1312,0.0
1530,72000.0
2,3, 1, 3, 0, 5, 0.00,60.00,Tuesday
12,93174600.22059283
60,9335165.36472
281,66275441.706240006
1113,7707922.484891439
1212,1565270.664726827
1262,1631113.7754549389
1286,0.0
1312,0.0
1530,1631113.7754549389
2,3, 1, 3, 0, 6, 0.00,60.00,Tuesday
12,104736869.9341287
60,18670330.72944
281,66275441.706240006
1113,9634903.106114298
1212,1865394.392319858
1262,1631106.3408269493
1286,0.0
1312,0.0
1530,1631106.3408269493
2,3, 1, 3, 0, 7, 0.00,60.00,Tuesday
12,145641707.33214295
60,18670330.72944
281,66275441.706240006
1113,40841387.88043856
1212,11563747.016009836
1262,72000.0
1286,0.0
1312,0.0
1530,72000.0
2,3, 1, 3, 0, 8, 0.00,60.00,Tuesday
12,173586142.27766174
60,56010992.18832
281,66275441.706240006
1113,40841387.88043856
1212,7694720.502648634
1262,1631108.9593656778
1286,0.0
1312,0.0
1530,1631108.9593656778
2,3, 1, 3, 0, 9, 0.00,60.00,Tuesday
12,378815106.05704844
60,168032976.56496
281,149119743.83904
1113,40841387.88043856
1212,20820997.77259526
1262,1631271.085648908
1286,0.0
1312,0.0
1530,1631271.085648908
2,3, 1, 3, 0,10, 0.00,60.00,Tuesday
12,382292475.8989645
60,168032976.56496
281,149119743.83904
1113,40841387.88043856
1212,24298367.61451131
1262,1631370.518222591
1286,0.0
1312,0.0
1530,1631370.518222591
2,3, 1, 3, 0,11, 0.00,60.00,Tuesday
12,383841859.53853595
60,168032976.56496
281,149119743.83904
1113,40841387.88043856
1212,25847751.254082732
1262,3190499.1165236663
1286,0.0
1312,0.0
1530,3190499.1165236663
2,3, 1, 3, 0,12, 0.00,60.00,Tuesday
12,384879211.2747995
60,168032976.56496
281,149119743.83904
1113,40841387.88043856
1212,26885102.990346357
1262,1631274.8621985542
1286,0.0
1312,0.0
1530,1631274.8621985542
2,3, 1, 3, 0,13, 0.00,60.00,Tuesday
12,367406927.83337206
60,168032976.56496
281,132550883.41248001
1113,40841387.88043856
1212,25981679.97547879
1262,1631452.665818224
1286,0.0
1312,0.0
1530,1631452.665818224
2,3, 1, 3, 0,14, 0.00,60.00,Tuesday
12,386021541.2351271
60,168032976.56496
281,149119743.83904
1113,40841387.88043856
1212,28027432.950673856
1262,1631310.5224339906
1286,0.0
1312,0.0
1530,1631310.5224339906
2,3, 1, 3, 0,15, 0.00,60.00,Tuesday
12,386409939.663214
60,168032976.56496
281,149119743.83904
1113,40841387.88043856
1212,28415831.378760807
1262,1631269.9933356121
1286,0.0
1312,0.0
1530,1631269.9933356121
2,3, 1, 3, 0,16, 0.00,60.00,Tuesday
12,386588054.8971376
60,168032976.56496
281,149119743.83904
1113,40841387.88043856
1212,28593946.61268439
1262,1631303.4787573107
1286,0.0
1312,0.0
1530,1631303.4787573107
2,3, 1, 3, 0,17, 0.00,60.00,Tuesday
12,392129373.99026245
60,168032976.56496
281,149119743.83904
1113,40841387.88043856
1212,28608065.70580926
1262,3190846.0088681215
1286,0.0
1312,0.0
1530,3190846.0088681215
2,3, 1, 3, 0,18, 0.00,60.00,Tuesday
12,243743518.2140466
60,93351653.6472
281,82844302.13280003
1113,40841387.88043856
1212,18415374.553593475
1262,1631247.1665091692
1286,0.0
1312,0.0
1530,1631247.1665091692
2,3, 1, 3, 0,19, 0.00,60.00,Tuesday
12,184225941.4863767
60,56010992.18832
281,66275441.706240006
1113,40841387.88043856
1212,12807319.711363593
1262,72000.0
1286,0.0
1312,0.0
1530,72000.0
2,3, 1, 3, 0,20, 0.00,60.00,Tuesday
12,182674086.62696448
60,56010992.18832
281,66275441.706240006
1113,40841387.88043856
1212,11255464.851951346
1262,1631192.6477538247
1286,0.0
1312,0.0
1530,1631192.6477538247
2,3, 1, 3, 0,21, 0.00,60.00,Tuesday
12,162392769.5408518
60,37340661.45888
281,66275441.706240006
1113,40841387.88043856
1212,9644478.495278724
1262,1631136.705976528
1286,0.0
1312,0.0
1530,1631136.705976528
2,3, 1, 3, 0,22, 0.00,60.00,Tuesday
12,161624155.30884328
60,37340661.45888
281,66275441.706240006
1113,40841387.88043856
1212,8875864.263270184
1262,1631098.7109585796
1286,0.0
1312,0.0
1530,1631098.7109585796
2,3, 1, 3, 0,23, 0.00,60.00,Tuesday
12,100790990.04652485
60,18670330.72944
281,66275441.706240006
1113,6262687.018974293
1212,1291730.5918560014
1262,72000.0
1286,0.0
1312,0.0
1530,72000.0
2,3, 1, 3, 0,24, 0.00,60.00,Tuesday
12,95423717.79179317
60,9335165.36472
281,66275441.706240006
1113,9634903.106114298
1212,1887407.6147043142
1262,1631085.54636196
1286,0.0
1312,0.0
1530,1631085.54636196
2,4, 1, 4, 0, 1, 0.00,60.00,Wednesday
12,93159472.33546677
60,9335165.36472
281,66275441.706240006
1113,7707922.484891439
1212,1550142.7796007907
1262,1631078.0312563907
1286,0.0
1312,0.0
1530,1631078.0312563907
2,4, 1, 4, 0, 2, 0.00,60.00,Wednesday
12,95347472.61392632
60,9335165.36472
281,66275441.706240006
1113,9634903.106114298
1212,1811162.436837493
1262,72000.0
1286,0.0
1312,0.0
1530,72000.0
2,4, 1, 4, 0, 3, 0.00,60.00,Wednesday
12,93107174.3508944
60,9335165.36472
281,66275441.706240006
1113,7707922.484891439
1212,1497844.7950284188
1262,1631118.1150994368
1286,0.0
1312,0.0
1530,1631118.1150994368
2,4, 1, 4, 0, 4, 0.00,60.00,Wednesday
12,95272366.30878215
60,9335165.36472
281,66275441.706240006
1113,9634903.106114298
1212,1736056.131693294
1262,1631113.6082561554
1286,0.0
1312,0.0
1530,1631113.6082561554
2,4, 1, 4, 0, 5, 0.00,60.00,Wednesday
12,93037725.02339016
60,9335165.36472
281,66275441.706240006
1113,7707922.484891439
1212,1428395.4675241653
1262,72000.0
1286,0.0
1312,0.0
1530,72000.0
2,4, 1, 4, 0, 6, 0.00,60.00,Wednesday
12,104642206.31949803
60,18670330.72944
281,66275441.706240006
1113,9634903.106114298
1212,1770730.7776891936
1262,1631078.5689938646
1286,0.0
1312,0.0
1530,1631078.5689938646
2,4, 1, 4, 0, 7, 0.00,60.00,Wednesday
12,145332657.48496202
60,18670330.72944
281,66275441.706240006
1113,40841387.88043856
1212,11254697.168828899
1262,1631115.3447062613
1286,0.0
1312,0.0
1530,1631115.3447062613
2,4, 1, 4, 0, 8, 0.00,60.00,Wednesday
12,173567365.8484759
60,56010992.18832
281,66275441.706240006
1113,40841387.88043856
1212,7675944.073462787
1262,1631123.730429409
1286,0.0
1312,0.0
1530,1631123.730429409
2,4, 1, 4, 0, 9, 0.00,60.00,Wednesday
12,379257734.23394585
60,168032976.56496
281,149119743.83904
1113,40841387.88043856
1212,21263625.949492667
1262,1631242.6418088
1286,0.0
1312,0.0
1530,1631242.6418088
2,4, 1, 4, 0,10, 0.00,60.00,Wednesday
12,383225308.91184175
60,168032976.56496
281,149119743.83904
1113,40841387.88043856
1212,25231200.627388578
1262,1631373.9128301078
1286,0.0
1312,0.0
1530,1631373.9128301078
2,4, 1, 4, 0,11, 0.00,60.00,Wednesday
12,384827162.8118114
60,168032976.56496
281,149119743.83904
1113,40841387.88043856
1212,26833054.5273582
1262,1631400.4943215416
1286,0.0
1312,0.0
1530,1631400.4943215416
2,4, 1, 4, 0,12, 0.00,60.00,Wednesday
12,385871007.8619535
60,168032976.56496
281,149119743.83904
1113,40841387.88043856
1212,27876899.577500306
1262,1631318.9350409987
1286,0.0
1312,0.0
1530,1631318.9350409987
2,4, 1, 4, 0,13, 0.00,60.00,Wednesday
12,368444967.41586417
60,168032976.56496
281,132550883.41248001
1113,40841387.88043856
1212,27019719.55797092
1262,3190786.2277900344
1286,0.0
1312,0.0
1530,3190786.2277900344
2,4, 1, 4, 0,14, 0.00,60.00,Wednesday
12,387108312.72839904
60,168032976.56496
281,149119743.83904
1113,40841387.88043856
1212,29114204.443945814
1262,1631433.501361823
1286,0.0
1312,0.0
1530,1631433.501361823
2,4, 1, 4, 0,15, 0.00,60.00,Wednesday
12,387344133.2973222
60,168032976.56496
281,149119743.83904
1113,40841387.88043856
1212,29350025.01286903
1262,1631230.254392887
1286,0.0
1312,0.0
1530,1631230.254392887
2,4, 1, 4, 0,16, 0.00,60.00,Wednesday
12,387369669.4942424
60,168032976.56496
281,149119743.83904
1113,40841387.88043856
1212,29375561.20978927
1262,1631284.1599786433
1286,0.0
1312,0.0
1530,1631284.1599786433
2,4, 1, 4, 0,17, 0.00,60.00,Wednesday
12,392348044.93669647
60,168032976.56496
281,149119743.83904
1113,40841387.88043856
1212,28826736.652243234
1262,1631384.2144501456
1286,0.0
1312,0.0
1530,1631384.2144501456
2,4, 1, 4, 0,18, 0.00,60.00,Wednesday
12,243287670.03174016
60,93351653.6472
281,82844302.13280003
1113,40841387.88043856
1212,17959526.371287003
1262,1631242.430349069
1286,0.0
1312,0.0
1530,1631242.430349069
2,4, 1, 4, 0,19, 0.00,60.00,Wednesday
12,183432065.6294654
60,56010992.18832
281,66275441.706240006
1113,40841387.88043856
1212,12013443.854452292
1262,1631103.9027592635
1286,0.0
1312,0.0
1530,1631103.9027592635
2,4, 1, 4, 0,20, 0.00,60.00,Wednesday
12,181760997.69117254
60,56010992.18832
281,66275441.706240006
1113,40841387.88043856
1212,10342375.916159455
1262,1631172.6112513791
1286,0.0
1312,0.0
1530,1631172.6112513791
2,4, 1, 4, 0,21, 0.00,60.00,Wednesday
12,161612999.99440295
60,37340661.45888
281,66275441.706240006
1113,40841387.88043856
1212,8864708.948829845
1262,1631138.6893144248
1286,0.0
1312,0.0
1530,1631138.6893144248
2,4, 1, 4, 0,22, 0.00,60.00,Wednesday
12,160836702.3199965
60,37340661.45888
281,66275441.706240006
1113,40841387.88043856
1212,8088411.274423398
1262,72000.0
1286,0.0
1312,0.0
1530,72000.0
2,4, 1, 4, 0,23, 0.00,60.00,Wednesday
12,100675209.13849258
60,18670330.72944
281,66275441.706240006
1113,6262687.018974293
1212,1175949.6838237485
1262,1631107.1941782706
1286,0.0
1312,0.0
1530,1631107.1941782706
2,4, 1, 4, 0,24, 0.00,60.00,Wednesday
12,95233784.38580935
60,9335165.36472
281,66275441.706240006
1113,9634903.106114298
1212,1697474.2087205003
1262,1631091.2498214478
1286,0.0
1312,0.0
1530,1631091.2498214478
2,5, 1, 5, 0, 1, 0.00,60.00,Thursday
12,92961564.71831931
60,9335165.36472
281,66275441.706240006
1113,7707922.484891439
1212,1352235.1624533331
1262,72000.0
1286,0.0
1312,0.0
1530,72000.0
2,5, 1, 5, 0, 2, 0.00,60.00,Thursday
12,95129455.11554444
60,9335165.36472
281,66275441.706240006
1113,9634903.106114298
1212,1593144.9384555856
1262,1631103.78250985
1286,0.0
1312,0.0
1530,1631103.78250985
2,5, 1, 5, 0, 3, 0.00,60.00,Thursday
12,92898516.25362612
60,9335165.36472
281,66275441.706240006
1113,7707922.484891439
1212,1289186.697760133
1262,1631099.4670671187
1286,0.0
1312,0.0
1530,1631099.4670671187
2,5, 1, 5, 0, 4, 0.00,60.00,Thursday
12,92823302.15338442
60,9335165.36472
281,66275441.706240006
1113,7707922.484891439
1212,1213972.5975184287
1262,72000.0
1286,0.0
1312,0.0
1530,72000.0
2,5, 1, 5, 0, 5, 0.00,60.00,Thursday
12,86108990.23475763
60,9335165.36472
281,66275441.706240006
1113,1926980.6212228597
1212,280602.5425602369
1262,1631084.571025302
1286,0.0
1312,0.0
1530,1631084.571025302
2,5, 1, 5, 0, 6, 0.00,60.00,Thursday
12,93236572.43569456
60,18670330.72944
281,66275441.706240006
1113,0.0
1212,0.0
1262,1631129.0110613317
1286,0.0
1312,0.0
1530,1631129.0110613317
2,5, 1, 5, 0, 7, 0.00,60.00,Thursday
12,143026115.15355447
60,18670330.72944
281,66275441.706240006
1113,40841387.88043856
1212,8948154.837421384
1262,72000.0
1286,0.0
1312,0.0
1530,72000.0
2,5, 1, 5, 0, 8, 0.00,60.00,Thursday
12,170269674.52088192
60,56010992.18832
281,66275441.706240006
1113,40841387.88043856
1212,4378252.745868822
1262,1631157.3375824993
1286,0.0
1312,0.0
1530,1631157.3375824993
2,5, 1, 5, 0, 9, 0.00,60.00,Thursday
12,375699003.4940439
60,168032976.56496
281,149119743.83904
1113,40841387.88043856
1212,17704895.209590655
1262,1631361.91065521
1286,0.0
1312,0.0
1530,1631361.91065521
2,5, 1, 5, 0,10, 0.00,60.00,Thursday
12,380062995.4581361
60,168032976.56496
281,149119743.83904
1113,40841387.88043855
1212,22068887.173682846
1262,1631373.3891443862
1286,0.0
1312,0.0
1530,1631373.3891443862
2,5, 1, 5, 0,11, 0.00,60.00,Thursday
12,382157623.12382543
60,168032976.56496
281,149119743.83904
1113,40841387.88043855
1212,24163514.83937219
1262,1631401.9515643478
1286,0.0
1312,0.0
1530,1631401.9515643478
2,5, 1, 5, 0,12, 0.00,60.00,Thursday
12,383475125.56785035
60,168032976.56496
281,149119743.83904
1113,40841387.88043856
1212,25481017.28339713
1262,3190880.793218945
1286,0.0
1312,0.0
1530,3190880.793218945
2,5, 1, 5, 0,13, 0.00,60.00,Thursday
12,366281419.3459291
60,168032976.56496
281,132550883.41248001
1113,40841387.88043856
1212,24856171.4880358
1262,1631350.3304422242
1286,0.0
1312,0.0
1530,1631350.3304422242
2,5, 1, 5, 0,14, 0.00,60.00,Thursday
12,385156221.17035395
60,168032976.56496
281,149119743.83904
1113,40841387.88043856
1212,27162112.88590078
1262,1631461.7035322387
1286,0.0
1312,0.0
1530,1631461.7035322387
2,5, 1, 5, 0,15, 0.00,60.00,Thursday
12,386075459.25061923
60,168032976.56496
281,149119743.83904
1113,40841387.88043856
1212,28081350.966166027
1262,1631355.2077880576
1286,0.0
1312,0.0
1530,1631355.2077880576
2,5, 1, 5, 0,16, 0.00,60.00,Thursday
12,386224073.8911095
60,168032976.56496
281,149119743.83904
1113,40841387.88043856
1212,28229965.606656305
1262,1631316.840721208
1286,0.0
1312,0.0
1530,1631316.840721208
2,5, 1, 5, 0,17, 0.00,60.00,Thursday
12,391135464.2903069
60,168032976.56496
281,149119743.83904
1113,40841387.88043856
1212,27614156.005853698
1262,3190778.2069370067
1286,0.0
1312,0.0
1530,3190778.2069370067
2,5, 1, 5, 0,18, 0.00,60.00,Thursday
12,242488396.62916696
60,93351653.6472
281,82844302.13280003
1113,40841387.88043856
1212,17160252.9687138
1262,1631163.976322336
1286,0.0
1312,0.0
1530,1631163.976322336
2,5, 1, 5, 0,19, 0.00,60.00,Thursday
12,182923200.473365
60,56010992.18832
281,66275441.706240006
1113,40841387.88043856
1212,11504578.698351922
1262,72000.0
1286,0.0
1312,0.0
1530,72000.0
2,5, 1, 5, 0,20, 0.00,60.00,Thursday
12,181161682.4939384
60,56010992.18832
281,66275441.706240006
1113,40841387.88043856
1212,9743060.7189253
1262,1631114.8822934006
1286,0.0
1312,0.0
1530,1631114.8822934006
2,5, 1, 5, 0,21, 0.00,60.00,Thursday
12,160659136.529042
60,37340661.45888
281,66275441.706240006
1113,40841387.88043856
1212,7910845.483468907
1262,1631198.2918455703
1286,0.0
1312,0.0
1530,1631198.2918455703
2,5, 1, 5, 0,22, 0.00,60.00,Thursday
12,159663344.13272095
60,37340661.45888
281,66275441.706240006
1113,40841387.88043856
1212,6915053.08714784
1262,1631025.0112994194
1286,0.0
1312,0.0
1530,1631025.0112994194
2,5, 1, 5, 0,23, 0.00,60.00,Thursday
12,98828273.56641574
60,18670330.72944
281,66275441.706240006
1113,4817451.553057149
1212,774249.5776640463
1262,72000.0
1286,0.0
1312,0.0
1530,72000.0
2,5, 1, 5, 0,24, 0.00,60.00,Thursday
12,95153633.75578646
60,9335165.36472
281,66275441.706240006
1113,9634903.106114298
1212,1617323.578697627
1262,1631104.2592661555
1286,0.0
1312,0.0
1530,1631104.2592661555
2,6, 1, 6, 0, 1, 0.00,60.00,Friday
12,92805713.67533378
60,9335165.36472
281,66275441.706240006
1113,7707922.484891439
1212,1196384.119467807
1262,1631099.4901338995
1286,0.0
1312,0.0
1530,1631099.4901338995
2,6, 1, 6, 0, 2, 0.00,60.00,Friday
12,83901407.07097454
60,9335165.36472
281,66275441.706240006
1113,0.0
1212,0.0
1262,72000.0
1286,0.0
1312,0.0
1530,72000.0
2,6, 1, 6, 0, 3, 0.00,60.00,Friday
12,83901407.07097454
60,9335165.36472
281,66275441.706240006
1113,0.0
1212,0.0
1262,1631104.2469159989
1286,0.0
1312,0.0
1530,1631104.2469159989
2,6, 1, 6, 0, 4, 0.00,60.00,Friday
12,83901407.07097454
60,9335165.36472
281,66275441.706240006
1113,0.0
1212,0.0
1262,1631097.5257233395
1286,0.0
1312,0.0
1530,1631097.5257233395
2,6, 1, 6, 0, 5, 0.00,60.00,Friday
12,83901407.07097454
60,9335165.36472
281,66275441.706240006
1113,0.0
1212,0.0
1262,72000.0
1286,0.0
1312,0.0
1530,72000.0
2,6, 1, 6, 0, 6, 0.00,60.00,Friday
12,93236572.43569456
60,18670330.72944
281,66275441.706240006
1113,0.0
1212,0.0
1262,1631122.0361681492
1286,0.0
1312,0.0
1530,1631122.0361681492
2,6, 1, 6, 0, 7, 0.00,60.00,Friday
12,142410050.0125048
60,18670330.72944
281,66275441.706240006
1113,40841387.88043856
1212,8332089.696371684
1262,1631046.1487662296
1286,0.0
1312,0.0
1530,1631046.1487662296
2,6, 1, 6, 0, 8, 0.00,60.00,Friday
12,169819254.21665496
60,56010992.18832
281,66275441.706240006
1113,40841387.88043856
1212,3927832.441641856
1262,1631196.0048078247
1286,0.0
1312,0.0
1530,1631196.0048078247
2,6, 1, 6, 0, 9, 0.00,60.00,Friday
12,375164497.50680894
60,168032976.56496
281,149119743.83904
1113,40841387.88043856
1212,17170389.22235577
1262,1631366.4329871677
1286,0.0
1312,0.0
1530,1631366.4329871677
2,6, 1, 6, 0,10, 0.00,60.00,Friday
12,379324214.73165536
60,168032976.56496
281,149119743.83904
1113,40841387.88043855
1212,21330106.447202154
1262,1631375.6339551155
1286,0.0
1312,0.0
1530,1631375.6339551155
2,6, 1, 6, 0,11, 0.00,60.00,Friday
12,380805701.80538446
60,168032976.56496
281,149119743.83904
1113,40841387.88043856
1212,22811593.52093121
1262,1631336.4936018342
1286,0.0
1312,0.0
1530,1631336.4936018342
2,6, 1, 6, 0,12, 0.00,60.00,Friday
12,381127387.51424
60,168032976.56496
281,149119743.83904
1113,40841387.88043856
1212,23133279.229786746
1262,1631246.6431035073
1286,0.0
1312,0.0
1530,1631246.6431035073
2,6, 1, 6, 0,13, 0.00,60.00,Friday
12,363320224.210484
60,168032976.56496
281,132550883.41248001
1113,40841387.88043856
1212,21894976.352590747
1262,1631377.4607157782
1286,0.0
1312,0.0
1530,1631377.4607157782
2,6, 1, 6, 0,14, 0.00,60.00,Friday
12,381520294.0411812
60,168032976.56496
281,149119743.83904
1113,40841387.88043856
1212,23526185.75672797
1262,3190875.3603752824
1286,0.0
1312,0.0
1530,3190875.3603752824
2,6, 1, 6, 0,15, 0.00,60.00,Friday
12,382053968.8709466
60,168032976.56496
281,149119743.83904
1113,40841387.88043856
1212,24059860.586493414