Program Version,EnergyPlus, Version 25.1.0-68a4a7c774, YMD=2025.10.28 18:22
1,5,Environment Title[],Latitude[deg],Longitude[deg],Time Zone[],Elevation[m]
2,8,Day of Simulation[],Month[],Day of Month[],DST Indicator[1=yes 0=no],Hour[],StartMinute[],EndMinute[],DayType
3,5,Cumulative Day of Simulation[],Month[],Day of Month[],DST Indicator[1=yes 0=no],DayType  ! When Daily Meters Requested
4,2,Cumulative Days of Simulation[],Month[]  ! When Monthly Meters Requested
5,1,Cumulative Days of Simulation[] ! When Run Period Meters Requested
6,1,Calendar Year of Simulation[] ! When Annual Meters Requested
12,1,Electricity:Facility [J] !Hourly
1113,1,Fans:Electricity [J] !Hourly
1212,1,Cooling:Electricity [J] !Hourly
1312,1,Heating:Electricity [J] !Hourly
60,1,InteriorLights:Electricity [J] !Hourly
281,1,InteriorEquipment:Electricity [J] !Hourly
1262,1,NaturalGas:Facility [J] !Hourly
1286,1,Heating:NaturalGas [J] !Hourly
1530,1,Water Heater:WaterSystems:NaturalGas [J] !Hourly
14,9,Electricity:Facility [J] !Monthly [Value,Min,Day,Hour,Minute,Max,Day,Hour,Minute]
1264,9,NaturalGas:Facility [J] !Monthly [Value,Min,Day,Hour,Minute,Max,Day,Hour,Minute]
1360,9,Water:Facility [m3] !Monthly [Value,Min,Day,Hour,Minute,Max,Day,Hour,Minute]
462,9,EnergyTransfer:Facility [J] !Monthly [Value,Min,Day,Hour,Minute,Max,Day,Hour,Minute]
955,9,ElectricityPurchased:Facility [J] !Monthly [Value,Min,Day,Hour,Minute,Max,Day,Hour,Minute]
1004,9,ElectricitySurplusSold:Facility [J] !Monthly [Value,Min,Day,Hour,Minute,Max,Day,Hour,Minute]
1053,9,ElectricityNet:Facility [J] !Monthly [Value,Min,Day,Hour,Minute,Max,Day,Hour,Minute]
2287,9,Carbon Equivalent:Facility [kg] !Monthly [Value,Min,Day,Hour,Minute,Max,Day,Hour,Minute]
906,9,PlantLoopHeatingDemand:Facility [J] !Monthly [Value,Min,Day,Hour,Minute,Max,Day,Hour,Minute]
1409,9,MainsWater:Facility [m3] !Monthly [Value,Min,Day,Hour,Minute,Max,Day,Hour,Minute]
1965,9,WaterEnvironmentalFactors:Facility [L] !Monthly [Value,Min,Day,Hour,Minute,Max,Day,Hour,Minute]
1615,9,Source:Facility [J] !Monthly [Value,Min,Day,Hour,Minute,Max,Day,Hour,Minute]
1765,9,SO2:Facility [kg] !Monthly [Value,Min,Day,Hour,Minute,Max,Day,Hour,Minute]
1715,9,NOx:Facility [kg] !Monthly [Value,Min,Day,Hour,Minute,Max,Day,Hour,Minute]
1740,9,N2O:Facility [kg] !Monthly [Value,Min,Day,Hour,Minute,Max,Day,Hour,Minute]
1790,9,PM:Facility [kg] !Monthly [Value,Min,Day,Hour,Minute,Max,Day,Hour,Minute]
1840,9,PM2.5:Facility [kg] !Monthly [Value,Min,Day,Hour,Minute,Max,Day,Hour,Minute]
1815,9,PM10:Facility [kg] !Monthly [Value,Min,Day,Hour,Minute,Max,Day,Hour,Minute]
1665,9,CO:Facility [kg] !Monthly [Value,Min,Day,Hour,Minute,Max,Day,Hour,Minute]
1640,9,CO2:Facility [kg] !Monthly [Value,Min,Day,Hour,Minute,Max,Day,Hour,Minute]
1690,9,CH4:Facility [kg] !Monthly [Value,Min,Day,Hour,Minute,Max,Day,Hour,Minute]
1865,9,NH3:Facility [kg] !Monthly [Value,Min,Day,Hour,Minute,Max,Day,Hour,Minute]
1890,9,NMVOC:Facility [kg] !Monthly [Value,Min,Day,Hour,Minute,Max,Day,Hour,Minute]
1915,9,Hg:Facility [kg] !Monthly [Value,Min,Day,Hour,Minute,Max,Day,Hour,Minute]
1940,9,Pb:Facility [kg] !Monthly [Value,Min,Day,Hour,Minute,Max,Day,Hour,Minute]
1990,9,Nuclear High:Facility [kg] !Monthly [Value,Min,Day,Hour,Minute,Max,Day,Hour,Minute]
2015,9,Nuclear Low:Facility [m3] !Monthly [Value,Min,Day,Hour,Minute,Max,Day,Hour,Minute]
End of Data Dictionary
1,ANNUAL,  41.98, -87.92,  -6.00, 201.00
2,1, 1, 1, 0, 1, 0.00,60.00,Holiday
12,61022615.23585455
60,10047309.854400001
281,42684505.381440006
1113,0.0
1212,0.0
1262,72000.0
1286,0.0
1312,0.0
1530,72000.0
2,1, 1, 1, 0, 2, 0.00,60.00,Holiday
12,61022615.23585455
60,10047309.854400001
281,42684505.381440006
1113,0.0
1212,0.0
1262,1631084.0613433796
1286,0.0
1312,0.0
1530,1631084.0613433796
2,1, 1, 1, 0, 3, 0.00,60.00,Holiday
12,61022615.23585455
60,10047309.854400001
281,42684505.381440006
1113,0.0
1212,0.0
1262,72000.0
1286,0.0
1312,0.0
1530,72000.0
2,1, 1, 1, 0, 4, 0.00,60.00,Holiday
12,61022615.23585455
60,10047309.854400001
281,42684505.381440006
1113,0.0
1212,0.0
1262,1631044.83184318
1286,0.0
1312,0.0
1530,1631044.83184318
2,1, 1, 1, 0, 5, 0.00,60.00,Holiday
12,61022615.23585455
60,10047309.854400001
281,42684505.381440006
1113,0.0
1212,0.0
1262,1631017.9219451451
1286,0.0
1312,0.0
1530,1631017.9219451451
2,1, 1, 1, 0, 6, 0.00,60.00,Holiday
12,61022615.23585455
60,10047309.854400001
281,42684505.381440006
1113,0.0
1212,0.0
1262,72000.0
1286,0.0
1312,0.0
1530,72000.0
2,1, 1, 1, 0, 7, 0.00,60.00,Holiday
12,61022615.23585455
60,10047309.854400001
281,42684505.381440006
1113,0.0
1212,0.0
1262,1631030.86192308
1286,0.0
1312,0.0
1530,1631030.86192308
2,1, 1, 1, 0, 8, 0.00,60.00,Holiday
12,55495415.23585455
60,10047309.854400001
281,42684505.381440006
1113,0.0
1212,0.0
1262,1631001.9957434756
1286,0.0
1312,0.0
1530,1631001.9957434756
2,1, 1, 1, 0, 9, 0.00,60.00,Holiday
12,52731815.23585455
60,10047309.854400001
281,42684505.381440006
1113,0.0
1212,0.0
1262,72000.0
1286,0.0
1312,0.0
1530,72000.0
2,1, 1, 1, 0,10, 0.00,60.00,Holiday
12,52731815.23585455
60,10047309.854400001
281,42684505.381440006
1113,0.0
1212,0.0
1262,1631096.8712055262
1286,0.0
1312,0.0
1530,1631096.8712055262
2,1, 1, 1, 0,11, 0.00,60.00,Holiday
12,52731815.23585455
60,10047309.854400001
281,42684505.381440006
1113,0.0
1212,0.0
1262,1631101.7998689197
1286,0.0
1312,0.0
1530,1631101.7998689197
2,1, 1, 1, 0,12, 0.00,60.00,Holiday
12,52731815.23585455
60,10047309.854400001
281,42684505.381440006
1113,0.0
1212,0.0
1262,72000.0
1286,0.0
1312,0.0
1530,72000.0
2,1, 1, 1, 0,13, 0.00,60.00,Holiday
12,52731815.23585455
60,10047309.854400001
281,42684505.381440006
1113,0.0
1212,0.0
1262,1631069.4169715513
1286,0.0
1312,0.0
1530,1631069.4169715513
2,1, 1, 1, 0,14, 0.00,60.00,Holiday
12,52731815.23585455
60,10047309.854400001
281,42684505.381440006
1113,0.0
1212,0.0
1262,1631130.2131402455
1286,0.0
1312,0.0
1530,1631130.2131402455
2,1, 1, 1, 0,15, 0.00,60.00,Holiday
12,52731815.23585455
60,10047309.854400001
281,42684505.381440006
1113,0.0
1212,0.0
1262,72000.0
1286,0.0
1312,0.0
1530,72000.0
2,1, 1, 1, 0,16, 0.00,60.00,Holiday
12,52731815.23585455
60,10047309.854400001
281,42684505.381440006
1113,0.0
1212,0.0
1262,1631007.796106263
1286,0.0
1312,0.0
1530,1631007.796106263
2,1, 1, 1, 0,17, 0.00,60.00,Holiday
12,58259015.23585455
60,10047309.854400001
281,42684505.381440006
1113,0.0
1212,0.0
1262,1631092.1268897823
1286,0.0
1312,0.0
1530,1631092.1268897823
2,1, 1, 1, 0,18, 0.00,60.00,Holiday
12,61022615.23585455
60,10047309.854400001
281,42684505.381440006
1113,0.0
1212,0.0
1262,72000.0
1286,0.0
1312,0.0
1530,72000.0
2,1, 1, 1, 0,19, 0.00,60.00,Holiday
12,61022615.23585455
60,10047309.854400001
281,42684505.381440006
1113,0.0
1212,0.0
1262,1631055.3719854685
1286,0.0
1312,0.0
1530,1631055.3719854685
2,1, 1, 1, 0,20, 0.00,60.00,Holiday
12,61022615.23585455
60,10047309.854400001
281,42684505.381440006
1113,0.0
1212,0.0
1262,1631028.6377857488
1286,0.0
1312,0.0
1530,1631028.6377857488
2,1, 1, 1, 0,21, 0.00,60.00,Holiday
12,61022615.23585455
60,10047309.854400001
281,42684505.381440006
1113,0.0
1212,0.0
1262,72000.0
1286,0.0
1312,0.0
1530,72000.0
2,1, 1, 1, 0,22, 0.00,60.00,Holiday
12,61022615.23585455
60,10047309.854400001
281,42684505.381440006
1113,0.0
1212,0.0
1262,1631030.9771789259
1286,0.0
1312,0.0
1530,1631030.9771789259
2,1, 1, 1, 0,23, 0.00,60.00,Holiday
12,61022615.23585455
60,10047309.854400001
281,42684505.381440006
1113,0.0
1212,0.0
1262,1631012.5070630459
1286,0.0
1312,0.0
1530,1631012.5070630459
2,1, 1, 1, 0,24, 0.00,60.00,Holiday
12,61022615.23585455
60,10047309.854400001
281,42684505.381440006
1113,0.0
1212,0.0
1262,72000.0
1286,0.0
1312,0.0
1530,72000.0
2,2, 1, 2, 0, 1, 0.00,60.00,Monday
12,75250783.69633454
60,10047309.854400001
281,56912673.84192001
1113,0.0
1212,0.0
1262,1631099.5283406682
1286,0.0
1312,0.0
1530,1631099.5283406682
2,2, 1, 2, 0, 2, 0.00,60.00,Monday
12,75250783.69633454
60,10047309.854400001
281,56912673.84192001
1113,0.0
1212,0.0
1262,1631092.0177235294
1286,0.0
1312,0.0
1530,1631092.0177235294
2,2, 1, 2, 0, 3, 0.00,60.00,Monday
12,75250783.69633454
60,10047309.854400001
281,56912673.84192001
1113,0.0
1212,0.0
1262,72000.0
1286,0.0
1312,0.0
1530,72000.0
2,2, 1, 2, 0, 4, 0.00,60.00,Monday
12,75250783.69633454
60,10047309.854400001
281,56912673.84192001
1113,0.0
1212,0.0
1262,1631084.45237911
1286,0.0
1312,0.0
1530,1631084.45237911
2,2, 1, 2, 0, 5, 0.00,60.00,Monday
12,75250783.69633454
60,10047309.854400001
281,56912673.84192001
1113,0.0
1212,0.0
1262,1631076.8200953235
1286,0.0
1312,0.0
1530,1631076.8200953235
2,2, 1, 2, 0, 6, 0.00,60.00,Monday
12,85298093.55073453
60,20094619.708800003
281,56912673.84192001
1113,0.0
1212,0.0
1262,72000.0
1286,0.0
1312,0.0
1530,72000.0
2,2, 1, 2, 0, 7, 0.00,60.00,Monday
12,130159203.25648561
60,20094619.708800003
281,56912673.84192001
1113,39778664.048615634
1212,5082445.657135455
1262,1631021.7530138374
1286,0.0
1312,0.0
1530,1631021.7530138374
2,2, 1, 2, 0, 8, 0.00,60.00,Monday
12,163684390.51314163
60,60283859.12640001
281,56912673.84192001
1113,39778664.048615634
1212,3945593.4961914597
1262,1631112.4933438736
1286,0.0
1312,0.0
1530,1631112.4933438736
2,2, 1, 2, 0, 9, 0.00,60.00,Monday
12,365907666.51533043
60,180851577.37920004
281,128053516.14432003
1113,39778664.048615634
1212,17223908.943180233
1262,1631189.7216858272
1286,0.0
1312,0.0
1530,1631189.7216858272
2,2, 1, 2, 0,10, 0.00,60.00,Monday
12,370609515.5796134
60,180851577.37920004
281,128053516.14432003
1113,39778664.048615634
1212,21925758.00746316
1262,1631318.3363246792
1286,0.0
1312,0.0
1530,1631318.3363246792
2,2, 1, 2, 0,11, 0.00,60.00,Monday
12,373183947.06265736
60,180851577.37920004
281,128053516.14432003
1113,39778664.048615634
1212,24500189.490507115
1262,1631340.9393835664
1286,0.0
1312,0.0
1530,1631340.9393835664
2,2, 1, 2, 0,12, 0.00,60.00,Monday
12,374850067.0110974
60,180851577.37920004
281,128053516.14432003
1113,39778664.048615634
1212,26166309.438947175
1262,1631462.9817679077
1286,0.0
1312,0.0
1530,1631462.9817679077
2,2, 1, 2, 0,13, 0.00,60.00,Monday
12,360024914.52074885
60,180851577.37920004
281,113825347.68384002
1113,39778664.048615634
1212,25569325.4090785
1262,3190943.6155193923
1286,0.0
1312,0.0
1530,3190943.6155193923
2,2, 1, 2, 0,14, 0.00,60.00,Monday
12,375766044.91722184
60,180851577.37920004
281,128053516.14432003
1113,39778664.048615634
1212,27082287.34507163
1262,1631315.4479852126
1286,0.0
1312,0.0
1530,1631315.4479852126
2,2, 1, 2, 0,15, 0.00,60.00,Monday
12,375710896.7125196
60,180851577.37920004
281,128053516.14432003
1113,39778664.048615634
1212,27027139.14036934
1262,1631354.138171546
1286,0.0
1312,0.0
1530,1631354.138171546
2,2, 1, 2, 0,16, 0.00,60.00,Monday
12,376361956.64355606
60,180851577.37920004
281,128053516.14432003
1113,39778664.048615634
1212,27678199.071405828
1262,1631309.102026169
1286,0.0
1312,0.0
1530,1631309.102026169
2,2, 1, 2, 0,17, 0.00,60.00,Monday
12,382462259.4128566
60,180851577.37920004
281,128053516.14432003
1113,39778664.048615634
1212,28251301.840706307
1262,1631395.808688172
1286,0.0
1312,0.0
1530,1631395.808688172
2,2, 1, 2, 0,18, 0.00,60.00,Monday
12,237675565.64612347
60,100473098.544
281,71140842.30240001
1113,39778664.048615634
1212,17992160.75109331
1262,1631177.4342070904
1286,0.0
1312,0.0
1530,1631177.4342070904
2,2, 1, 2, 0,19, 0.00,60.00,Monday
12,177763980.13138762
60,60283859.12640001
281,56912673.84192001
1113,39778664.048615634
1212,12497983.11443746
1262,1631216.2097833557
1286,0.0
1312,0.0
1530,1631216.2097833557
2,2, 1, 2, 0,20, 0.00,60.00,Monday
12,176568565.52481163
60,60283859.12640001
281,56912673.84192001
1113,39778664.048615634
1212,11302568.507861467
1262,1631146.7445898547
1286,0.0
1312,0.0
1530,1631146.7445898547
2,2, 1, 2, 0,21, 0.00,60.00,Monday
12,155034816.2646133
60,40189239.417600006
281,56912673.84192001
1113,39778664.048615634
1212,9863438.956463147
1262,1631106.4428435182
1286,0.0
1312,0.0
1530,1631106.4428435182
2,2, 1, 2, 0,22, 0.00,60.00,Monday
12,154514049.5408316
60,40189239.417600006
281,56912673.84192001
1113,39778664.048615634
1212,9342672.232681451
1262,72000.0
1286,0.0
1312,0.0
1530,72000.0
2,2, 1, 2, 0,23, 0.00,60.00,Monday
12,92012490.1110978
60,20094619.708800003
281,56912673.84192001
1113,5625123.136286078
1212,1089273.4240771686
1262,1631116.151377124
1286,0.0
1312,0.0
1530,1631116.151377124
2,2, 1, 2, 0,24, 0.00,60.00,Monday
12,86400028.23812363
60,10047309.854400001
281,56912673.84192001
1113,9375205.227143465
1212,1774039.31464561
1262,1631105.6965940748
1286,0.0
1312,0.0
1530,1631105.6965940748
2,3, 1, 3, 0, 1, 0.00,60.00,Tuesday
12,84094627.19867125
60,10047309.854400001
281,56912673.84192001
1113,7500164.181714771
1212,1343679.320621933
1262,72000.0
1286,0.0
1312,0.0
1530,72000.0
2,3, 1, 3, 0, 2, 0.00,60.00,Tuesday
12,86308640.71374783
60,10047309.854400001
281,56912673.84192001
1113,9375205.227143465
1212,1682651.7902698382
1262,1631079.0040917522
1286,0.0
1312,0.0
1530,1631079.0040917522
2,3, 1, 3, 0, 3, 0.00,60.00,Tuesday
12,84054905.09473303
60,10047309.854400001
281,56912673.84192001
1113,7500164.181714771
1212,1303957.2166837133
1262,1631071.2926910408
1286,0.0
1312,0.0
1530,1631071.2926910408
2,3, 1, 3, 0, 4, 0.00,60.00,Tuesday
12,84085858.55202593
60,10047309.854400001
281,56912673.84192001
1113,7500164.181714771
1212,1334910.6739766223
1262,72000.0
1286,0.0
1312,0.0
1530,72000.0
2,3, 1, 3, 0, 5, 0.00,60.00,Tuesday
12,81816783.52586535
60,10047309.854400001
281,56912673.84192001
1113,5625123.136286078
1212,940876.6932447408
1262,1631063.7593100932
1286,0.0
1312,0.0
1530,1631063.7593100932
2,3, 1, 3, 0, 6, 0.00,60.00,Tuesday
12,94058087.36076128
60,20094619.708800003
281,56912673.84192001
1113,7500164.181714771
1212,1259829.628311966
1262,1631125.9044246653
1286,0.0
1312,0.0
1530,1631125.9044246653
2,3, 1, 3, 0, 7, 0.00,60.00,Tuesday
12,134907689.5363219
60,20094619.708800003
281,56912673.84192001
1113,39778664.048615634
1212,9830931.936971739
1262,72000.0
1286,0.0
1312,0.0
1530,72000.0
2,3, 1, 3, 0, 8, 0.00,60.00,Tuesday
12,166202752.28728628
60,60283859.12640001
281,56912673.84192001
1113,39778664.048615634
1212,6463955.270336073
1262,1631108.9373627335
1286,0.0
1312,0.0
1530,1631108.9373627335
2,3, 1, 3, 0, 9, 0.00,60.00,Tuesday
12,367796064.85332686
60,180851577.37920004
281,128053516.14432003
1113,39778664.048615634
1212,19112307.281176608
1262,1631271.0595678003
1286,0.0
1312,0.0
1530,1631271.0595678003
2,3, 1, 3, 0,10, 0.00,60.00,Tuesday
12,371414746.5089209
60,180851577.37920004
281,128053516.14432003
1113,39778664.048615634
1212,22730988.936770663
1262,1631370.492204719
1286,0.0
1312,0.0
1530,1631370.492204719
2,3, 1, 3, 0,11, 0.00,60.00,Tuesday
12,373041229.9723868
60,180851577.37920004
281,128053516.14432003
1113,39778664.048615634
1212,24357472.40023654
1262,3190499.056593322
1286,0.0
1312,0.0
1530,3190499.056593322
2,3, 1, 3, 0,12, 0.00,60.00,Tuesday
12,374124813.59360623
60,180851577.37920004
281,128053516.14432003
1113,39778664.048615634
1212,25441056.021456055
1262,1631274.8381903917
1286,0.0
1312,0.0
1530,1631274.8381903917
2,3, 1, 3, 0,13, 0.00,60.00,Tuesday
12,359224256.0115802
60,180851577.37920004
281,113825347.68384002
1113,39778664.048615634
1212,24768666.89990991
1262,1631452.6386079546
1286,0.0
1312,0.0
1530,1631452.6386079546
2,3, 1, 3, 0,14, 0.00,60.00,Tuesday
12,375356915.7411796
60,180851577.37920004
281,128053516.14432003
1113,39778664.048615634
1212,26673158.16902925
1262,1631310.4910044237
1286,0.0
1312,0.0
1530,1631310.4910044237
2,3, 1, 3, 0,15, 0.00,60.00,Tuesday
12,375756450.40308905
60,180851577.37920004
281,128053516.14432003
1113,39778664.048615634
1212,27072692.830938794
1262,1631269.9720262259
1286,0.0
1312,0.0
1530,1631269.9720262259
2,3, 1, 3, 0,16, 0.00,60.00,Tuesday
12,375954010.1202225
60,180851577.37920004
281,128053516.14432003
1113,39778664.048615634
1212,27270252.54807228
1262,1631303.4577527344
1286,0.0
1312,0.0
1530,1631303.4577527344
2,3, 1, 3, 0,17, 0.00,60.00,Tuesday
12,381513008.746522
60,180851577.37920004
281,128053516.14432003
1113,39778664.048615634
1212,27302051.174371775
1262,3190845.962125021
1286,0.0
1312,0.0
1530,3190845.962125021
2,3, 1, 3, 0,18, 0.00,60.00,Tuesday
12,237289673.2780518
60,100473098.544
281,71140842.30240001
1113,39778664.048615634
1212,17606268.383021645
1262,1631247.1346334305
1286,0.0
1312,0.0
1530,1631247.1346334305
2,3, 1, 3, 0,19, 0.00,60.00,Tuesday
12,177315580.2445866
60,60283859.12640001
281,56912673.84192001
1113,39778664.048615634
1212,12049583.227636391
1262,72000.0
1286,0.0
1312,0.0
1530,72000.0
2,3, 1, 3, 0,20, 0.00,60.00,Tuesday
12,175742390.6016846
60,60283859.12640001
281,56912673.84192001
1113,39778664.048615634
1212,10476393.584734427
1262,1631192.624230947
1286,0.0
1312,0.0
1530,1631192.624230947
2,3, 1, 3, 0,21, 0.00,60.00,Tuesday
12,153968907.66625103
60,40189239.417600006
281,56912673.84192001
1113,39778664.048615634
1212,8797530.358100876
1262,1631136.6816839825
1286,0.0
1312,0.0
1530,1631136.6816839825
2,3, 1, 3, 0,22, 0.00,60.00,Tuesday
12,153180907.33904454
60,40189239.417600006
281,56912673.84192001
1113,39778664.048615634
1212,8009530.030894385
1262,1631098.6813403275
1286,0.0
1312,0.0
1530,1631098.6813403275
2,3, 1, 3, 0,23, 0.00,60.00,Tuesday
12,90783486.0383794
60,20094619.708800003
281,56912673.84192001
1113,4687602.613571731
1212,797789.8740731357
1262,72000.0
1286,0.0
1312,0.0
1530,72000.0
2,3, 1, 3, 0,24, 0.00,60.00,Tuesday
12,86298494.12197915
60,10047309.854400001
281,56912673.84192001
1113,9375205.227143465
1212,1672505.1985011352
1262,1631105.1839029829
1286,0.0
1312,0.0
1530,1631105.1839029829
2,4, 1, 4, 0, 1, 0.00,60.00,Wednesday
12,84001813.345009
60,10047309.854400001
281,56912673.84192001
1113,7500164.181714771
1212,1250865.4669596795
1262,1631078.3202019923
1286,0.0
1312,0.0
1530,1631078.3202019923
2,4, 1, 4, 0, 2, 0.00,60.00,Wednesday
12,81819693.62077782
60,10047309.854400001
281,56912673.84192001
1113,5625123.136286078
1212,943786.7881571895
1262,72000.0
1286,0.0
1312,0.0
1530,72000.0
2,4, 1, 4, 0, 3, 0.00,60.00,Wednesday
12,81800197.80123156
60,10047309.854400001
281,56912673.84192001
1113,5625123.136286078
1212,924290.9686109484
1262,1631118.1645742392
1286,0.0
1312,0.0
1530,1631118.1645742392
2,4, 1, 4, 0, 4, 0.00,60.00,Wednesday
12,81775747.52498962
60,10047309.854400001
281,56912673.84192001
1113,5625123.136286078
1212,899840.6923689945
1262,1631063.5660432735
1286,0.0
1312,0.0
1530,1631063.5660432735
2,4, 1, 4, 0, 5, 0.00,60.00,Wednesday
12,75250783.69633454
60,10047309.854400001
281,56912673.84192001
1113,0.0
1212,0.0
1262,72000.0
1286,0.0
1312,0.0
1530,72000.0
2,4, 1, 4, 0, 6, 0.00,60.00,Wednesday
12,91839147.17182158
60,20094619.708800003
281,56912673.84192001
1113,5625123.136286078
1212,915930.4848009472
1262,1631078.3375150915
1286,0.0
1312,0.0
1530,1631078.3375150915
2,4, 1, 4, 0, 7, 0.00,60.00,Wednesday
12,134719252.22939646
60,20094619.708800003
281,56912673.84192001
1113,39778664.048615634
1212,9642494.630046308
1262,1631115.3333665559
1286,0.0
1312,0.0
1530,1631115.3333665559
2,4, 1, 4, 0, 8, 0.00,60.00,Wednesday
12,166226991.77090234
60,60283859.12640001
281,56912673.84192001
1113,39778664.048615634
1212,6488194.753952134
1262,1631123.7141723582
1286,0.0
1312,0.0
1530,1631123.7141723582
2,4, 1, 4, 0, 9, 0.00,60.00,Wednesday
12,368257874.0037306
60,180851577.37920004
281,128053516.14432003
1113,39778664.048615634
1212,19574116.431580387
1262,1631242.6284236405
1286,0.0
1312,0.0
1530,1631242.6284236405
2,4, 1, 4, 0,10, 0.00,60.00,Wednesday
12,372345166.3357241
60,180851577.37920004
281,128053516.14432003
1113,39778664.048615634
1212,23661408.763573922
1262,1631373.9040109038
1286,0.0
1312,0.0
1530,1631373.9040109038
2,4, 1, 4, 0,11, 0.00,60.00,Wednesday
12,374019163.4025651
60,180851577.37920004
281,128053516.14432003
1113,39778664.048615634
1212,25335405.830414873
1262,1631400.4825546278
1286,0.0
1312,0.0
1530,1631400.4825546278
2,4, 1, 4, 0,12, 0.00,60.00,Wednesday
12,375106489.32953787
60,180851577.37920004
281,128053516.14432003
1113,39778664.048615634
1212,26422731.75738767
1262,1631318.922520322
1286,0.0
1312,0.0
1530,1631318.922520322
2,4, 1, 4, 0,13, 0.00,60.00,Wednesday
12,360252005.2468068
60,180851577.37920004
281,113825347.68384002
1113,39778664.048615634
1212,25796416.135136466
1262,3190786.1962566413
1286,0.0
1312,0.0
1530,3190786.1962566413
2,4, 1, 4, 0,14, 0.00,60.00,Wednesday
12,376424732.8877129
60,180851577.37920004
281,128053516.14432003
1113,39778664.048615634
1212,27740975.315562636
1262,1631433.4875450057
1286,0.0
1312,0.0
1530,1631433.4875450057
2,4, 1, 4, 0,15, 0.00,60.00,Wednesday
12,376674921.0828953
60,180851577.37920004
281,128053516.14432003
1113,39778664.048615634
1212,27991163.510745123
1262,1631230.2427212105
1286,0.0
1312,0.0
1530,1631230.2427212105
2,4, 1, 4, 0,16, 0.00,60.00,Wednesday
12,376721436.39473927
60,180851577.37920004
281,128053516.14432003
1113,39778664.048615634
1212,28037678.822588995
1262,1631284.1447734516
1286,0.0
1312,0.0
1530,1631284.1447734516
2,4, 1, 4, 0,17, 0.00,60.00,Wednesday
12,381732395.9731042
60,180851577.37920004
281,128053516.14432003
1113,39778664.048615634
1212,27521438.400953963
1262,1631384.2023269357
1286,0.0
1312,0.0
1530,1631384.2023269357
2,4, 1, 4, 0,18, 0.00,60.00,Wednesday
12,236849904.37493196
60,100473098.544
281,71140842.30240001
1113,39778664.048615634
1212,17166499.479901813
1262,1631242.4145902754
1286,0.0
1312,0.0
1530,1631242.4145902754
2,4, 1, 4, 0,19, 0.00,60.00,Wednesday
12,176544190.28526533
60,60283859.12640001
281,56912673.84192001
1113,39778664.048615634
1212,11278193.26831514
1262,1631103.8900018302
1286,0.0
1312,0.0
1530,1631103.8900018302
2,4, 1, 4, 0,20, 0.00,60.00,Wednesday
12,174854572.55513343
60,60283859.12640001
281,56912673.84192001
1113,39778664.048615634
1212,9588575.538183236
1262,1631172.599266534
1286,0.0
1312,0.0
1530,1631172.599266534
2,4, 1, 4, 0,21, 0.00,60.00,Wednesday
12,153214586.7860513
60,40189239.417600006
281,56912673.84192001
1113,39778664.048615634
1212,8043209.477901131
1262,1631138.6734485468
1286,0.0
1312,0.0
1530,1631138.6734485468
2,4, 1, 4, 0,22, 0.00,60.00,Wednesday
12,152418415.89250496
60,40189239.417600006
281,56912673.84192001
1113,39778664.048615634
1212,7247038.584354805
1262,72000.0
1286,0.0
1312,0.0
1530,72000.0
2,4, 1, 4, 0,23, 0.00,60.00,Wednesday
12,91871363.56503892
60,20094619.708800003
281,56912673.84192001
1113,5625123.136286078
1212,948146.8780183024
1262,1631107.133848438
1286,0.0
1312,0.0
1530,1631107.133848438
2,4, 1, 4, 0,24, 0.00,60.00,Wednesday
12,81760539.79632112
60,10047309.854400001
281,56912673.84192001
1113,5625123.136286078
1212,884632.9637005036
1262,1631091.2285372508
1286,0.0
1312,0.0
1530,1631091.2285372508
2,5, 1, 5, 0, 1, 0.00,60.00,Thursday
12,75250783.69633454
60,10047309.854400001
281,56912673.84192001
1113,0.0
1212,0.0
1262,72000.0
1286,0.0
1312,0.0
1530,72000.0
2,5, 1, 5, 0, 2, 0.00,60.00,Thursday
12,75250783.69633454
60,10047309.854400001
281,56912673.84192001
1113,0.0
1212,0.0
1262,1631084.274858231
1286,0.0
1312,0.0
1530,1631084.274858231
2,5, 1, 5, 0, 3, 0.00,60.00,Thursday
12,75250783.69633454
60,10047309.854400001
281,56912673.84192001
1113,0.0
1212,0.0
1262,1631077.2073532576
1286,0.0
1312,0.0
1530,1631077.2073532576
2,5, 1, 5, 0, 4, 0.00,60.00,Thursday
12,75250783.69633454
60,10047309.854400001
281,56912673.84192001
1113,0.0
1212,0.0
1262,72000.0
1286,0.0
1312,0.0
1530,72000.0
2,5, 1, 5, 0, 5, 0.00,60.00,Thursday
12,75250783.69633454
60,10047309.854400001
281,56912673.84192001
1113,0.0
1212,0.0
1262,1631084.4152883894
1286,0.0
1312,0.0
1530,1631084.4152883894
2,5, 1, 5, 0, 6, 0.00,60.00,Thursday
12,85298093.55073453
60,20094619.708800003
281,56912673.84192001
1113,0.0
1212,0.0
1262,1631128.8498055732
1286,0.0
1312,0.0
1530,1631128.8498055732
2,5, 1, 5, 0, 7, 0.00,60.00,Thursday
12,132345514.00423077
60,20094619.708800003
281,56912673.84192001
1113,39778664.048615634
1212,7268756.404880625
1262,72000.0
1286,0.0
1312,0.0
1530,72000.0
2,5, 1, 5, 0, 8, 0.00,60.00,Thursday
12,162967351.03022254
60,60283859.12640001
281,56912673.84192001
1113,39778664.048615634
1212,3228554.0132723544
1262,1631157.1161813734
1286,0.0
1312,0.0
1530,1631157.1161813734
2,5, 1, 5, 0, 9, 0.00,60.00,Thursday
12,364760126.13987523
60,180851577.37920004
281,128053516.14432003
1113,39778664.048615634
1212,16076368.567725014
1262,1631361.7108222
1286,0.0
1312,0.0
1530,1631361.7108222
2,5, 1, 5, 0,10, 0.00,60.00,Thursday
12,369261678.9355043
60,180851577.37920004
281,128053516.14432003
1113,39778664.048615634
1212,20577921.363354053
1262,1631373.184959087
1286,0.0
1312,0.0
1530,1631373.184959087
2,5, 1, 5, 0,11, 0.00,60.00,Thursday
12,371434827.1519746
60,180851577.37920004
281,128053516.14432003
1113,39778664.04861563
1212,22751069.579824455
1262,1631401.7569430142
1286,0.0
1312,0.0
1530,1631401.7569430142
2,5, 1, 5, 0,12, 0.00,60.00,Thursday
12,372796767.9737553
60,180851577.37920004
281,128053516.14432003
1113,39778664.048615634
1212,24113010.401605036
1262,3190880.3742561815
1286,0.0
1312,0.0
1530,3190880.3742561815
2,5, 1, 5, 0,13, 0.00,60.00,Thursday
12,358162067.01162565
60,180851577.37920004
281,113825347.68384002
1113,39778664.048615634
1212,23706477.899955355
1262,1631350.0842545407
1286,0.0
1312,0.0
1530,1631350.0842545407
2,5, 1, 5, 0,14, 0.00,60.00,Thursday
12,374553720.734982
60,180851577.37920004
281,128053516.14432003
1113,39778664.048615634
1212,25869963.16283173
1262,1631461.4611996599
1286,0.0
1312,0.0
1530,1631461.4611996599
2,5, 1, 5, 0,15, 0.00,60.00,Thursday
12,375465953.13053155
60,180851577.37920004
281,128053516.14432003
1113,39778664.048615634
1212,26782195.55838133
1262,1631354.9774957187
1286,0.0
1312,0.0
1530,1631354.9774957187
2,5, 1, 5, 0,16, 0.00,60.00,Thursday
12,375617268.8339917
60,180851577.37920004
281,128053516.14432003
1113,39778664.048615634
1212,26933511.261841483
1262,1631316.6372850467
1286,0.0
1312,0.0
1530,1631316.6372850467
2,5, 1, 5, 0,17, 0.00,60.00,Thursday
12,380550019.3676562
60,180851577.37920004
281,128053516.14432003
1113,39778664.048615634
1212,26339061.795505844
1262,3190777.7556702597
1286,0.0
1312,0.0
1530,3190777.7556702597
2,5, 1, 5, 0,18, 0.00,60.00,Thursday
12,236060812.17948726
60,100473098.544
281,71140842.30240001
1113,39778664.048615634
1212,16377407.28445709
1262,1631163.7484144266
1286,0.0
1312,0.0
1530,1631163.7484144266
2,5, 1, 5, 0,19, 0.00,60.00,Thursday
12,176041755.38725913
60,60283859.12640001
281,56912673.84192001
1113,39778664.048615634
1212,10775758.370308943
1262,72000.0
1286,0.0
1312,0.0
1530,72000.0
2,5, 1, 5, 0,20, 0.00,60.00,Thursday
12,174265563.76563698
60,60283859.12640001
281,56912673.84192001
1113,39778664.048615634
1212,8999566.748686772
1262,1631114.665344868
1286,0.0
1312,0.0
1530,1631114.665344868
2,5, 1, 5, 0,21, 0.00,60.00,Thursday
12,152281087.18265548
60,40189239.417600006
281,56912673.84192001
1113,39778664.048615634
1212,7109709.874505315
1262,1631198.0848307307
1286,0.0
1312,0.0
1530,1631198.0848307307
2,5, 1, 5, 0,22, 0.00,60.00,Thursday
12,151266467.88497308
60,40189239.417600006
281,56912673.84192001
1113,39778664.048615634
1212,6095090.576822896
1262,1631024.8003372473
1286,0.0
1312,0.0
1530,1631024.8003372473
2,5, 1, 5, 0,23, 0.00,60.00,Thursday
12,85298093.55073453
60,20094619.708800003
281,56912673.84192001
1113,0.0
1212,0.0
1262,72000.0
1286,0.0
1312,0.0
1530,72000.0
2,5, 1, 5, 0,24, 0.00,60.00,Thursday
12,81702711.8506605
60,10047309.854400001
281,56912673.84192001
1113,5625123.136286078
1212,826805.0180398782
1262,1631104.11276566
1286,0.0
1312,0.0
1530,1631104.11276566
2,6, 1, 6, 0, 1, 0.00,60.00,Friday
12,75250783.69633454
60,10047309.854400001
281,56912673.84192001
1113,0.0
1212,0.0
1262,1631006.7891948284
1286,0.0
1312,0.0
1530,1631006.7891948284
2,6, 1, 6, 0, 2, 0.00,60.00,Friday
12,75250783.69633454
60,10047309.854400001
281,56912673.84192001
1113,0.0
1212,0.0
1262,72000.0
1286,0.0
1312,0.0
1530,72000.0
2,6, 1, 6, 0, 3, 0.00,60.00,Friday
12,75250783.69633454
60,10047309.854400001
281,56912673.84192001
1113,0.0
1212,0.0
1262,1631104.0679647955
1286,0.0
1312,0.0
1530,1631104.0679647955
2,6, 1, 6, 0, 4, 0.00,60.00,Friday
12,75250783.69633454
60,10047309.854400001
281,56912673.84192001
1113,0.0
1212,0.0
1262,1631097.344954071
1286,0.0
1312,0.0
1530,1631097.344954071
2,6, 1, 6, 0, 5, 0.00,60.00,Friday
12,75250783.69633454
60,10047309.854400001
281,56912673.84192001
1113,0.0
1212,0.0
1262,72000.0
1286,0.0
1312,0.0
1530,72000.0
2,6, 1, 6, 0, 6, 0.00,60.00,Friday
12,85298093.55073453
60,20094619.708800003
281,56912673.84192001
1113,0.0
1212,0.0
1262,1631121.846678129
1286,0.0
1312,0.0
1530,1631121.846678129
2,6, 1, 6, 0, 7, 0.00,60.00,Friday
12,131653644.50633469
60,20094619.708800003
281,56912673.84192001
1113,39778664.048615634
1212,6576886.906984534
1262,1631045.948972513
1286,0.0
1312,0.0
1530,1631045.948972513
2,6, 1, 6, 0, 8, 0.00,60.00,Friday
12,162481379.68094587
60,60283859.12640001
281,56912673.84192001
1113,39778664.048615634
1212,2742582.6639956823
1262,1631195.8030545749
1286,0.0
1312,0.0
1530,1631195.8030545749
2,6, 1, 6, 0, 9, 0.00,60.00,Friday
12,364190032.9821272
60,180851577.37920004
281,128053516.14432003
1113,39778664.048615634
1212,15506275.409976954
1262,1631366.2450934798
1286,0.0
1312,0.0
1530,1631366.2450934798
2,6, 1, 6, 0,10, 0.00,60.00,Friday
12,368488346.0812658
60,180851577.37920004
281,128053516.14432003
1113,39778664.04861563
1212,19804588.5091156
1262,1631375.4477913203
1286,0.0
1312,0.0
1530,1631375.4477913203
2,6, 1, 6, 0,11, 0.00,60.00,Friday
12,370055639.59363616
60,180851577.37920004
281,128053516.14432003
1113,39778664.04861563
1212,21371882.02148596
1262,1631336.2978100823
1286,0.0
1312,0.0
1530,1631336.2978100823
2,6, 1, 6, 0,12, 0.00,60.00,Friday
12,370434119.4932582
60,180851577.37920004
281,128053516.14432003
1113,39778664.048615634
1212,21750361.92110794
1262,1631246.421123763
1286,0.0
1312,0.0
1530,1631246.421123763
2,6, 1, 6, 0,13, 0.00,60.00,Friday
12,355195444.09767485
60,180851577.37920004
281,113825347.68384002
1113,39778664.048615634
1212,20739854.98600448