Program Version,EnergyPlus, Version 25.1.0-68a4a7c774, YMD=2025.10.28 16:52
1,5,Environment Title[],Latitude[deg],Longitude[deg],Time Zone[],Elevation[m]
2,8,Day of Simulation[],Month[],Day of Month[],DST Indicator[1=yes 0=no],Hour[],StartMinute[],EndMinute[],DayType
3,5,Cumulative Day of Simulation[],Month[],Day of Month[],DST Indicator[1=yes 0=no],DayType  ! When Daily Meters Requested
4,2,Cumulative Days of Simulation[],Month[]  ! When Monthly Meters Requested
5,1,Cumulative Days of Simulation[] ! When Run Period Meters Requested
6,1,Calendar Year of Simulation[] ! When Annual Meters Requested
12,1,Electricity:Facility [J] !Hourly
1113,1,Fans:Electricity [J] !Hourly
1212,1,Cooling:Electricity [J] !Hourly
1312,1,Heating:Electricity [J] !Hourly
60,1,InteriorLights:Electricity [J] !Hourly
281,1,InteriorEquipment:Electricity [J] !Hourly
1262,1,NaturalGas:Facility [J] !Hourly
1286,1,Heating:NaturalGas [J] !Hourly
1530,1,Water Heater:WaterSystems:NaturalGas [J] !Hourly
14,9,Electricity:Facility [J] !Monthly [Value,Min,Day,Hour,Minute,Max,Day,Hour,Minute]
1264,9,NaturalGas:Facility [J] !Monthly [Value,Min,Day,Hour,Minute,Max,Day,Hour,Minute]
1360,9,Water:Facility [m3] !Monthly [Value,Min,Day,Hour,Minute,Max,Day,Hour,Minute]
462,9,EnergyTransfer:Facility [J] !Monthly [Value,Min,Day,Hour,Minute,Max,Day,Hour,Minute]
955,9,ElectricityPurchased:Facility [J] !Monthly [Value,Min,Day,Hour,Minute,Max,Day,Hour,Minute]
1004,9,ElectricitySurplusSold:Facility [J] !Monthly [Value,Min,Day,Hour,Minute,Max,Day,Hour,Minute]
1053,9,ElectricityNet:Facility [J] !Monthly [Value,Min,Day,Hour,Minute,Max,Day,Hour,Minute]
2287,9,Carbon Equivalent:Facility [kg] !Monthly [Value,Min,Day,Hour,Minute,Max,Day,Hour,Minute]
906,9,PlantLoopHeatingDemand:Facility [J] !Monthly [Value,Min,Day,Hour,Minute,Max,Day,Hour,Minute]
1409,9,MainsWater:Facility [m3] !Monthly [Value,Min,Day,Hour,Minute,Max,Day,Hour,Minute]
1965,9,WaterEnvironmentalFactors:Facility [L] !Monthly [Value,Min,Day,Hour,Minute,Max,Day,Hour,Minute]
1615,9,Source:Facility [J] !Monthly [Value,Min,Day,Hour,Minute,Max,Day,Hour,Minute]
1765,9,SO2:Facility [kg] !Monthly [Value,Min,Day,Hour,Minute,Max,Day,Hour,Minute]
1715,9,NOx:Facility [kg] !Monthly [Value,Min,Day,Hour,Minute,Max,Day,Hour,Minute]
1740,9,N2O:Facility [kg] !Monthly [Value,Min,Day,Hour,Minute,Max,Day,Hour,Minute]
1790,9,PM:Facility [kg] !Monthly [Value,Min,Day,Hour,Minute,Max,Day,Hour,Minute]
1840,9,PM2.5:Facility [kg] !Monthly [Value,Min,Day,Hour,Minute,Max,Day,Hour,Minute]
1815,9,PM10:Facility [kg] !Monthly [Value,Min,Day,Hour,Minute,Max,Day,Hour,Minute]
1665,9,CO:Facility [kg] !Monthly [Value,Min,Day,Hour,Minute,Max,Day,Hour,Minute]
1640,9,CO2:Facility [kg] !Monthly [Value,Min,Day,Hour,Minute,Max,Day,Hour,Minute]
1690,9,CH4:Facility [kg] !Monthly [Value,Min,Day,Hour,Minute,Max,Day,Hour,Minute]
1865,9,NH3:Facility [kg] !Monthly [Value,Min,Day,Hour,Minute,Max,Day,Hour,Minute]
1890,9,NMVOC:Facility [kg] !Monthly [Value,Min,Day,Hour,Minute,Max,Day,Hour,Minute]
1915,9,Hg:Facility [kg] !Monthly [Value,Min,Day,Hour,Minute,Max,Day,Hour,Minute]
1940,9,Pb:Facility [kg] !Monthly [Value,Min,Day,Hour,Minute,Max,Day,Hour,Minute]
1990,9,Nuclear High:Facility [kg] !Monthly [Value,Min,Day,Hour,Minute,Max,Day,Hour,Minute]
2015,9,Nuclear Low:Facility [m3] !Monthly [Value,Min,Day,Hour,Minute,Max,Day,Hour,Minute]
End of Data Dictionary
1,ANNUAL,  41.98, -87.92,  -6.00, 201.00
2,1, 1, 1, 0, 1, 0.00,60.00,Holiday
12,20534609.759797454
60,990009.6523200001
281,5940057.91392
1113,5313742.1935429135
1212,0.0
1262,11290620.698889956
1286,11218620.698889958
1312,0.0
1530,72000.0
2,1, 1, 1, 0, 2, 0.00,60.00,Holiday
12,20527821.027114667
60,990009.6523200001
281,5940057.91392
1113,5306953.460860129
1212,0.0
1262,15257522.888659598
1286,13626438.825774929
1312,0.0
1530,1631084.0628846714
2,1, 1, 1, 0, 3, 0.00,60.00,Holiday
12,21854559.3923297
60,990009.6523200001
281,5940057.91392
1113,6633691.826075162
1212,0.0
1262,13374672.192090943
1286,13302672.192090943
1312,0.0
1530,72000.0
2,1, 1, 1, 0, 4, 0.00,60.00,Holiday
12,20527821.027114667
60,990009.6523200001
281,5940057.91392
1113,5306953.460860129
1212,0.0
1262,13732263.26015749
1286,12101161.098818246
1312,0.0
1530,1631102.161339243
2,1, 1, 1, 0, 5, 0.00,60.00,Holiday
12,21854559.3923297
60,990009.6523200001
281,5940057.91392
1113,6633691.826075162
1212,0.0
1262,15568360.95886074
1286,13937253.705742251
1312,0.0
1530,1631107.25311849
2,1, 1, 1, 0, 6, 0.00,60.00,Holiday
12,20527821.027114667
60,990009.6523200001
281,5940057.91392
1113,5306953.460860129
1212,0.0
1262,12613774.46306175
1286,12541774.46306175
1312,0.0
1530,72000.0
2,1, 1, 1, 0, 7, 0.00,60.00,Holiday
12,21854559.3923297
60,990009.6523200001
281,5940057.91392
1113,6633691.826075162
1212,0.0
1262,16179792.492444677
1286,14548761.242982833
1312,0.0
1530,1631031.2494618457
2,1, 1, 1, 0, 8, 0.00,60.00,Holiday
12,15000621.027114667
60,990009.6523200001
281,5940057.91392
1113,5306953.460860129
1212,0.0
1262,14063672.949276853
1286,12432569.529877149
1312,0.0
1530,1631103.4193997076
2,1, 1, 1, 0, 9, 0.00,60.00,Holiday
12,12991552.682813494
60,990009.6523200001
281,5940057.91392
1113,6061485.116558956
1212,0.0
1262,11688628.641219066
1286,11616628.641219066
1312,0.0
1530,72000.0
2,1, 1, 1, 0,10, 0.00,60.00,Holiday
12,9217490.760622699
60,990009.6523200001
281,5940057.91392
1113,2287423.19436816
1212,0.0
1262,6847134.672151044
1286,5216016.137512382
1312,0.0
1530,1631118.5346386621
2,1, 1, 1, 0,11, 0.00,60.00,Holiday
12,10396813.105086183
60,990009.6523200001
281,5940057.91392
1113,3464905.321369947
1212,1840.2174616962402
1262,7435675.481385531
1286,5804573.59259277
1312,0.0
1530,1631101.8887927614
2,1, 1, 1, 0,12, 0.00,60.00,Holiday
12,10219906.752473315
60,990009.6523200001
281,5940057.91392
1113,3289839.1862187763
1212,0.0
1262,3589960.834671622
1286,3517960.834671622
1312,0.0
1530,72000.0
2,1, 1, 1, 0,13, 0.00,60.00,Holiday
12,10478507.553612037
60,990009.6523200001
281,5940057.91392
1113,3548439.9873574986
1212,0.0
1262,5775259.8441399615
1286,4144174.0590872047
1312,0.0
1530,1631085.7850527558
2,1, 1, 1, 0,14, 0.00,60.00,Holiday
12,10219906.752473315
60,990009.6523200001
281,5940057.91392
1113,3289839.1862187763
1212,0.0
1262,4123782.577989406
1286,2492651.961541477
1312,0.0
1530,1631130.6164479284
2,1, 1, 1, 0,15, 0.00,60.00,Holiday
12,10478507.553612037
60,990009.6523200001
281,5940057.91392
1113,3548439.9873574986
1212,0.0
1262,3495878.064402491
1286,3423878.064402491
1312,0.0
1530,72000.0
2,1, 1, 1, 0,16, 0.00,60.00,Holiday
12,10219906.752473315
60,990009.6523200001
281,5940057.91392
1113,3289839.1862187763
1212,0.0
1262,4473860.29984178
1286,2842852.1477645235
1312,0.0
1530,1631008.152077256
2,1, 1, 1, 0,17, 0.00,60.00,Holiday
12,16005707.553612037
60,990009.6523200001
281,5940057.91392
1113,3548439.9873574986
1212,0.0
1262,6138553.674237288
1286,4507453.502769838
1312,0.0
1530,1631100.1714674497
2,1, 1, 1, 0,18, 0.00,60.00,Holiday
12,18510706.752473317
60,990009.6523200001
281,5940057.91392
1113,3289839.1862187763
1212,0.0
1262,3765661.5172692426
1286,3693661.5172692426
1312,0.0
1530,72000.0
2,1, 1, 1, 0,19, 0.00,60.00,Holiday
12,19703942.50819464
60,990009.6523200001
281,5940057.91392
1113,4483074.941940102
1212,0.0
1262,7364888.614796605
1286,5733816.874772947
1312,0.0
1530,1631071.7400236572
2,1, 1, 1, 0,20, 0.00,60.00,Holiday
12,19530308.52110888
60,990009.6523200001
281,5940057.91392
1113,4309440.954854343
1212,0.0
1262,5764241.38335087
1286,4133212.292227987
1312,0.0
1530,1631029.0911228827
2,1, 1, 1, 0,21, 0.00,60.00,Holiday
12,19788909.322247606
60,990009.6523200001
281,5940057.91392
1113,4568041.755993065
1212,0.0
1262,5381578.666145214
1286,5309578.666145214
1312,0.0
1530,72000.0
2,1, 1, 1, 0,22, 0.00,60.00,Holiday
12,19275408.07894999
60,990009.6523200001
281,5940057.91392
1113,4054540.5126954513
1212,0.0
1262,5744117.4517531805
1286,4112994.0711462134
1312,0.0
1530,1631123.3806069659
2,1, 1, 1, 0,23, 0.00,60.00,Holiday
12,19980084.653866775
60,990009.6523200001
281,5940057.91392
1113,4759217.087612234
1212,0.0
1262,7211618.674094965
1286,5580519.4512856575
1312,0.0
1530,1631099.222809308
2,1, 1, 1, 0,24, 0.00,60.00,Holiday
12,19530308.52110888
60,990009.6523200001
281,5940057.91392
1113,4309440.954854343
1212,0.0
1262,4956089.559159851
1286,4884089.559159851
1312,0.0
1530,72000.0
2,2, 1, 2, 0, 1, 0.00,60.00,Monday
12,22023829.069046497
60,990009.6523200001
281,7920077.218560001
1113,4822942.198151957
1212,0.0
1262,7742451.670033915
1286,6111343.570255585
1312,0.0
1530,1631108.0997783302
2,2, 1, 2, 0, 2, 0.00,60.00,Monday
12,21510327.82574888
60,990009.6523200001
281,7920077.218560001
1113,4309440.954854343
1212,0.0
1262,6931565.737046168
1286,5300450.741834482
1312,0.0
1530,1631114.9952116855
2,2, 1, 2, 0, 3, 0.00,60.00,Monday
12,22023829.069046497
60,990009.6523200001
281,7920077.218560001
1113,4822942.198151957
1212,0.0
1262,6493949.147008929
1286,6421949.147008929
1312,0.0
1530,72000.0
2,2, 1, 2, 0, 4, 0.00,60.00,Monday
12,21510327.82574888
60,990009.6523200001
281,7920077.218560001
1113,4309440.954854343
1212,0.0
1262,6912349.000752211
1286,5281244.099459082
1312,0.0
1530,1631104.9012931294
2,2, 1, 2, 0, 5, 0.00,60.00,Monday
12,22023829.069046497
60,990009.6523200001
281,7920077.218560001
1113,4822942.198151957
1212,0.0
1262,7203891.142564697
1286,5572800.5479097
1312,0.0
1530,1631090.594654997
2,2, 1, 2, 0, 6, 0.00,60.00,Monday
12,22500337.47806888
60,1980019.3046400002
281,7920077.218560001
1113,4309440.954854343
1212,0.0
1262,3920362.2284048237
1286,3848362.2284048237
1312,0.0
1530,72000.0
2,2, 1, 2, 0, 7, 0.00,60.00,Monday
12,26151326.714504734
60,1980019.3046400002
281,7920077.218560001
1113,7960430.191290194
1212,0.0
1262,101028381.60775316
1286,99397359.30092523
1312,0.0
1530,1631022.306827934
2,2, 1, 2, 0, 8, 0.00,60.00,Monday
12,24584165.32378473
60,5940057.91392
281,7920077.218560001
1113,7960430.191290194
1212,0.0
1262,92353019.68685497
1286,90721906.62713322
1312,0.0
1530,1631113.0597217632
2,2, 1, 2, 0, 9, 0.00,60.00,Monday
12,43600777.67482474
60,17820173.74176
281,17820173.74176
1113,7960430.191290194
1212,0.0
1262,58750587.61786556
1286,57119397.2906381
1312,0.0
1530,1631190.3272274672
2,2, 1, 2, 0,10, 0.00,60.00,Monday
12,43600777.67482474
60,17820173.74176
281,17820173.74176
1113,7960430.191290194
1212,0.0
1262,46235060.633794926
1286,44603741.74866692
1312,0.0
1530,1631318.885128003
2,2, 1, 2, 0,11, 0.00,60.00,Monday
12,43600777.67482474
60,17820173.74176
281,17820173.74176
1113,7960430.191290194
1212,0.0
1262,38178103.220650524
1286,36546761.73780754
1312,0.0
1530,1631341.4828429804
2,2, 1, 2, 0,12, 0.00,60.00,Monday
12,43600777.67482474
60,17820173.74176
281,17820173.74176
1113,7960430.191290194
1212,0.0
1262,32132536.622400727
1286,30501073.092689168
1312,0.0
1530,1631463.529711557
2,2, 1, 2, 0,13, 0.00,60.00,Monday
12,41620758.37018473
60,17820173.74176
281,15840154.437120002
1113,7960430.191290194
1212,0.0
1262,34745929.72202894
1286,31554984.92063602
1312,0.0
1530,3190944.801392924
2,2, 1, 2, 0,14, 0.00,60.00,Monday
12,43600777.67482474
60,17820173.74176
281,17820173.74176
1113,7960430.191290194
1212,0.0
1262,27711174.314417552
1286,26079858.24205671
1312,0.0
1530,1631316.0723608413
2,2, 1, 2, 0,15, 0.00,60.00,Monday
12,43600777.67482474
60,17820173.74176
281,17820173.74176
1113,7960430.191290194
1212,0.0
1262,28141552.74106427
1286,26510511.58387065
1312,0.0
1530,1631041.1571936223
2,2, 1, 2, 0,16, 0.00,60.00,Monday
12,43600777.67482474
60,17820173.74176
281,17820173.74176
1113,7960430.191290194
1212,0.0
1262,26644469.810878657
1286,25013160.075754985
1312,0.0
1530,1631309.7351236702
2,2, 1, 2, 0,17, 0.00,60.00,Monday
12,49127977.67482474
60,17820173.74176
281,17820173.74176
1113,7960430.191290194
1212,0.0
1262,25484248.65995376
1286,23852852.190972935
1312,0.0
1530,1631396.4689808267
2,2, 1, 2, 0,18, 0.00,60.00,Monday
12,36051423.23770473
60,9900096.523200002
281,9900096.523200002
1113,7960430.191290194
1212,0.0
1262,40574350.87726717
1286,38943172.7331848
1312,0.0
1530,1631178.1440823674
2,2, 1, 2, 0,19, 0.00,60.00,Monday
12,30111365.32378473
60,5940057.91392
281,7920077.218560001
1113,7960430.191290194
1212,0.0
1262,46170662.97056668
1286,44539446.072665855
1312,0.0
1530,1631216.897900824
2,2, 1, 2, 0,20, 0.00,60.00,Monday
12,30111365.32378473
60,5940057.91392
281,7920077.218560001
1113,7960430.191290194
1212,0.0
1262,45466464.84896982
1286,43835317.44191009
1312,0.0
1530,1631147.407059731
2,2, 1, 2, 0,21, 0.00,60.00,Monday
12,28131346.019144736
60,3960038.6092800004
281,7920077.218560001
1113,7960430.191290194
1212,0.0
1262,45579730.216379225
1286,43948623.08601442
1312,0.0
1530,1631107.130364804
2,2, 1, 2, 0,22, 0.00,60.00,Monday
12,28131346.019144736
60,3960038.6092800004
281,7920077.218560001
1113,7960430.191290194
1212,0.0
1262,43054325.14449273
1286,42982325.14449273
1312,0.0
1530,72000.0
2,2, 1, 2, 0,23, 0.00,60.00,Monday
12,18190896.523214538
60,1980019.3046400002
281,7920077.218560001
1113,0.0
1212,0.0
1262,1631111.3445443208
1286,0.0
1312,0.0
1530,1631111.3445443208
2,2, 1, 2, 0,24, 0.00,60.00,Monday
12,17200886.87089454
60,990009.6523200001
281,7920077.218560001
1113,0.0
1212,0.0
1262,1631086.6836432284
1286,0.0
1312,0.0
1530,1631086.6836432284
2,3, 1, 3, 0, 1, 0.00,60.00,Tuesday
12,17200886.87089454
60,990009.6523200001
281,7920077.218560001
1113,0.0
1212,0.0
1262,72000.0
1286,0.0
1312,0.0
1530,72000.0
2,3, 1, 3, 0, 2, 0.00,60.00,Tuesday
12,17200886.87089454
60,990009.6523200001
281,7920077.218560001
1113,0.0
1212,0.0
1262,1631079.3058587767
1286,0.0
1312,0.0
1530,1631079.3058587767
2,3, 1, 3, 0, 3, 0.00,60.00,Tuesday
12,17200886.87089454
60,990009.6523200001
281,7920077.218560001
1113,0.0
1212,0.0
1262,1631071.8319439075
1286,0.0
1312,0.0
1530,1631071.8319439075
2,3, 1, 3, 0, 4, 0.00,60.00,Tuesday
12,17200886.87089454
60,990009.6523200001
281,7920077.218560001
1113,0.0
1212,0.0
1262,72000.0
1286,0.0
1312,0.0
1530,72000.0
2,3, 1, 3, 0, 5, 0.00,60.00,Tuesday
12,17200886.87089454
60,990009.6523200001
281,7920077.218560001
1113,0.0
1212,0.0
1262,1631064.3100049826
1286,0.0
1312,0.0
1530,1631064.3100049826
2,3, 1, 3, 0, 6, 0.00,60.00,Tuesday
12,18190896.523214538
60,1980019.3046400002
281,7920077.218560001
1113,0.0
1212,0.0
1262,1631106.54676827
1286,0.0
1312,0.0
1530,1631106.54676827
2,3, 1, 3, 0, 7, 0.00,60.00,Tuesday
12,26151326.714504734
60,1980019.3046400002
281,7920077.218560001
1113,7960430.191290194
1212,0.0
1262,66147261.293882325
1286,66075261.293882325
1312,0.0
1530,72000.0
2,3, 1, 3, 0, 8, 0.00,60.00,Tuesday
12,24584165.32378473
60,5940057.91392
281,7920077.218560001
1113,7960430.191290194
1212,0.0
1262,73541349.32839894
1286,71910239.87661797
1312,0.0
1530,1631109.4517809756
2,3, 1, 3, 0, 9, 0.00,60.00,Tuesday
12,43600777.67482474
60,17820173.74176
281,17820173.74176
1113,7960430.191290194
1212,0.0
1262,46620090.308712006
1286,44988818.708738215
1312,0.0
1530,1631271.5999737927
2,3, 1, 3, 0,10, 0.00,60.00,Tuesday
12,43600777.67482474
60,17820173.74176
281,17820173.74176
1113,7960430.191290194
1212,0.0
1262,39133446.86159193
1286,37502075.830367185
1312,0.0
1530,1631371.031224739
2,3, 1, 3, 0,11, 0.00,60.00,Tuesday
12,43600777.67482474
60,17820173.74176
281,17820173.74176
1113,7960430.191290194
1212,0.0
1262,35581936.7882019
1286,32391436.641114615
1312,0.0
1530,3190500.1470872853
2,3, 1, 3, 0,12, 0.00,60.00,Tuesday
12,43600777.67482474
60,17820173.74176
281,17820173.74176
1113,7960430.191290194
1212,0.0
1262,30325287.475376587
1286,28694012.081607178
1312,0.0
1530,1631275.3937694093
2,3, 1, 3, 0,13, 0.00,60.00,Tuesday
12,41620758.37018473
60,17820173.74176
281,15840154.437120002
1113,7960430.191290194
1212,0.0
1262,32366510.62335199
1286,30735057.42029673
1312,0.0
1530,1631453.2030552644
2,3, 1, 3, 0,14, 0.00,60.00,Tuesday
12,43600777.67482474
60,17820173.74176
281,17820173.74176
1113,7960430.191290194
1212,0.0
1262,25801940.932440102
1286,24170629.876015354
1312,0.0
1530,1631311.056424747
2,3, 1, 3, 0,15, 0.00,60.00,Tuesday
12,43600777.67482474
60,17820173.74176
281,17820173.74176
1113,7960430.191290194
1212,0.0
1262,25038880.358832467
1286,23407609.85260206
1312,0.0
1530,1631270.506230409
2,3, 1, 3, 0,16, 0.00,60.00,Tuesday
12,43600777.67482474
60,17820173.74176
281,17820173.74176
1113,7960430.191290194
1212,0.0
1262,24949729.297198184
1286,23318425.31000139
1312,0.0
1530,1631303.9871967952
2,3, 1, 3, 0,17, 0.00,60.00,Tuesday
12,49127977.67482474
60,17820173.74176
281,17820173.74176
1113,7960430.191290194
1212,0.0
1262,27375460.27567347
1286,24184613.347589135
1312,0.0
1530,3190846.928084337
2,3, 1, 3, 0,18, 0.00,60.00,Tuesday
12,36051423.23770473
60,9900096.523200002
281,9900096.523200002
1113,7960430.191290194
1212,0.0
1262,40367343.40017292
1286,38736095.75476441
1312,0.0
1530,1631247.6454085142
2,3, 1, 3, 0,19, 0.00,60.00,Tuesday
12,30111365.32378473
60,5940057.91392
281,7920077.218560001
1113,7960430.191290194
1212,0.0
1262,45544011.669517264
1286,45472011.669517264
1312,0.0
1530,72000.0
2,3, 1, 3, 0,20, 0.00,60.00,Tuesday
12,30111365.32378473
60,5940057.91392
281,7920077.218560001
1113,7960430.191290194
1212,0.0
1262,48743662.826091126
1286,47112469.71445373
1312,0.0
1530,1631193.111637391
2,3, 1, 3, 0,21, 0.00,60.00,Tuesday
12,28131346.019144736
60,3960038.6092800004
281,7920077.218560001
1113,7960430.191290194
1212,0.0
1262,50601901.903629355
1286,48970764.72609688
1312,0.0
1530,1631137.1775324664
2,3, 1, 3, 0,22, 0.00,60.00,Tuesday
12,28131346.019144736
60,3960038.6092800004
281,7920077.218560001
1113,7960430.191290194
1212,0.0
1262,51533707.502852336
1286,49902608.34086196
1312,0.0
1530,1631099.161990366
2,3, 1, 3, 0,23, 0.00,60.00,Tuesday
12,18190896.523214538
60,1980019.3046400002
281,7920077.218560001
1113,0.0
1212,0.0
1262,72000.0
1286,0.0
1312,0.0
1530,72000.0
2,3, 1, 3, 0,24, 0.00,60.00,Tuesday
12,17200886.87089454
60,990009.6523200001
281,7920077.218560001
1113,0.0
1212,0.0
1262,1631085.7588547065
1286,0.0
1312,0.0
1530,1631085.7588547065
2,4, 1, 4, 0, 1, 0.00,60.00,Wednesday
12,17200886.87089454
60,990009.6523200001
281,7920077.218560001
1113,0.0
1212,0.0
1262,1631078.4747008851
1286,0.0
1312,0.0
1530,1631078.4747008851
2,4, 1, 4, 0, 2, 0.00,60.00,Wednesday
12,17200886.87089454
60,990009.6523200001
281,7920077.218560001
1113,0.0
1212,0.0
1262,72000.0
1286,0.0
1312,0.0
1530,72000.0
2,4, 1, 4, 0, 3, 0.00,60.00,Wednesday
12,17200886.87089454
60,990009.6523200001
281,7920077.218560001
1113,0.0
1212,0.0
1262,1631071.1853160288
1286,0.0
1312,0.0
1530,1631071.1853160288
2,4, 1, 4, 0, 4, 0.00,60.00,Wednesday
12,17200886.87089454
60,990009.6523200001
281,7920077.218560001
1113,0.0
1212,0.0
1262,1631063.8496690372
1286,0.0
1312,0.0
1530,1631063.8496690372
2,4, 1, 4, 0, 5, 0.00,60.00,Wednesday
12,17200886.87089454
60,990009.6523200001
281,7920077.218560001
1113,0.0
1212,0.0
1262,72000.0
1286,0.0
1312,0.0
1530,72000.0
2,4, 1, 4, 0, 6, 0.00,60.00,Wednesday
12,18190896.523214538
60,1980019.3046400002
281,7920077.218560001
1113,0.0
1212,0.0
1262,1631078.6244466177
1286,0.0
1312,0.0
1530,1631078.6244466177
2,4, 1, 4, 0, 7, 0.00,60.00,Wednesday
12,26151326.714504734
60,1980019.3046400002
281,7920077.218560001
1113,7960430.191290194
1212,0.0
1262,71300576.8841787
1286,69669461.27324603
1312,0.0
1530,1631115.6109326768
2,4, 1, 4, 0, 8, 0.00,60.00,Wednesday
12,24584165.32378473
60,5940057.91392
281,7920077.218560001
1113,7960430.191290194
1212,0.0
1262,74516179.47186624
1286,72885055.43826398
1312,0.0
1530,1631124.0336022482
2,4, 1, 4, 0, 9, 0.00,60.00,Wednesday
12,43600777.67482474
60,17820173.74176
281,17820173.74176
1113,7960430.191290194
1212,0.0
1262,45449405.82500771
1286,43818162.862274595
1312,0.0
1530,1631242.9627331134
2,4, 1, 4, 0,10, 0.00,60.00,Wednesday
12,43600777.67482474
60,17820173.74176
281,17820173.74176
1113,7960430.191290194
1212,0.0
1262,36468920.18605651
1286,34837545.98945928
1312,0.0
1530,1631374.1965972232
2,4, 1, 4, 0,11, 0.00,60.00,Wednesday
12,43600777.67482474
60,17820173.74176
281,17820173.74176
1113,7960430.191290194
1212,0.0
1262,31382983.421813555
1286,29751582.642986707
1312,0.0
1530,1631400.778826849
2,4, 1, 4, 0,12, 0.00,60.00,Wednesday
12,43600777.67482474
60,17820173.74176
281,17820173.74176
1113,7960430.191290194
1212,0.0
1262,27807095.811217234
1286,26175776.544257857
1312,0.0
1530,1631319.266959379
2,4, 1, 4, 0,13, 0.00,60.00,Wednesday
12,41620758.37018473
60,17820173.74176
281,15840154.437120002
1113,7960430.191290194
1212,0.0
1262,31253960.87706746
1286,28063173.967879858
1312,0.0
1530,3190786.909187608
2,4, 1, 4, 0,14, 0.00,60.00,Wednesday
12,43600777.67482474
60,17820173.74176
281,17820173.74176
1113,7960430.191290194
1212,0.0
1262,23348416.216505237
1286,21716982.37930676
1312,0.0
1530,1631433.8371984793
2,4, 1, 4, 0,15, 0.00,60.00,Wednesday
12,43600777.67482474
60,17820173.74176
281,17820173.74176
1113,7960430.191290194
1212,0.0
1262,23056499.0653299
1286,21425268.48994435
1312,0.0
1530,1631230.57538555
2,4, 1, 4, 0,16, 0.00,60.00,Wednesday
12,43600777.67482474
60,17820173.74176
281,17820173.74176
1113,7960430.191290194
1212,0.0
1262,23621619.495652
1286,21990335.063189402
1312,0.0
1530,1631284.4324625984
2,4, 1, 4, 0,17, 0.00,60.00,Wednesday
12,49127977.67482474
60,17820173.74176
281,17820173.74176
1113,7960430.191290194
1212,0.0
1262,26255008.143992774
1286,24623623.636407763
1312,0.0
1530,1631384.5075850147
2,4, 1, 4, 0,18, 0.00,60.00,Wednesday
12,36051423.23770473
60,9900096.523200002
281,9900096.523200002
1113,7960430.191290194
1212,0.0
1262,43484213.40479682
1286,41852970.70501781
1312,0.0
1530,1631242.6997790048
2,4, 1, 4, 0,19, 0.00,60.00,Wednesday
12,30111365.32378473
60,5940057.91392
281,7920077.218560001
1113,7960430.191290194
1212,0.0
1262,52529045.17926127
1286,50897940.96797615
1312,0.0
1530,1631104.2112851224
2,4, 1, 4, 0,20, 0.00,60.00,Wednesday
12,30111365.32378473
60,5940057.91392
281,7920077.218560001
1113,7960430.191290194
1212,0.0
1262,55111524.92747474
1286,53480352.026483335
1312,0.0
1530,1631172.9009913993
2,4, 1, 4, 0,21, 0.00,60.00,Wednesday
12,28131346.019144736
60,3960038.6092800004
281,7920077.218560001
1113,7960430.191290194
1212,0.0
1262,56346695.93418329
1286,54715556.95102481
1312,0.0
1530,1631138.9831584848
2,4, 1, 4, 0,22, 0.00,60.00,Wednesday
12,28131346.019144736
60,3960038.6092800004
281,7920077.218560001
1113,7960430.191290194
1212,0.0
1262,55902948.58384644
1286,55830948.58384644
1312,0.0
1530,72000.0
2,4, 1, 4, 0,23, 0.00,60.00,Wednesday
12,18190896.523214538
60,1980019.3046400002
281,7920077.218560001
1113,0.0
1212,0.0
1262,1631098.8446776466
1286,0.0
1312,0.0
1530,1631098.8446776466
2,4, 1, 4, 0,24, 0.00,60.00,Wednesday
12,17200886.87089454
60,990009.6523200001
281,7920077.218560001
1113,0.0
1212,0.0
1262,1631091.4718493202
1286,0.0
1312,0.0
1530,1631091.4718493202
2,5, 1, 5, 0, 1, 0.00,60.00,Thursday
12,17200886.87089454
60,990009.6523200001
281,7920077.218560001
1113,0.0
1212,0.0
1262,72000.0
1286,0.0
1312,0.0
1530,72000.0
2,5, 1, 5, 0, 2, 0.00,60.00,Thursday
12,17200886.87089454
60,990009.6523200001
281,7920077.218560001
1113,0.0
1212,0.0
1262,1631084.5258102487
1286,0.0
1312,0.0
1530,1631084.5258102487
2,5, 1, 5, 0, 3, 0.00,60.00,Thursday
12,17200886.87089454
60,990009.6523200001
281,7920077.218560001
1113,0.0
1212,0.0
1262,1631077.4577200934
1286,0.0
1312,0.0
1530,1631077.4577200934
2,5, 1, 5, 0, 4, 0.00,60.00,Thursday
12,17200886.87089454
60,990009.6523200001
281,7920077.218560001
1113,0.0
1212,0.0
1262,72000.0
1286,0.0
1312,0.0
1530,72000.0
2,5, 1, 5, 0, 5, 0.00,60.00,Thursday
12,19286323.81481611
60,990009.6523200001
281,7920077.218560001
1113,2085436.9439215716
1212,0.0
1262,2506569.6596587836
1286,875485.0549754128
1312,0.0
1530,1631084.604683371
2,5, 1, 5, 0, 6, 0.00,60.00,Thursday
12,23009542.27717026
60,1980019.3046400002
281,7920077.218560001
1113,4818645.75395572
1212,0.0
1262,6575298.223763627
1286,4944161.95717066
1312,0.0
1530,1631136.266592967
2,5, 1, 5, 0, 7, 0.00,60.00,Thursday
12,26151326.714504734
60,1980019.3046400002
281,7920077.218560001
1113,7960430.191290194
1212,0.0
1262,88080708.66828358
1286,88008708.66828358
1312,0.0
1530,72000.0
2,5, 1, 5, 0, 8, 0.00,60.00,Thursday
12,24584165.32378473
60,5940057.91392
281,7920077.218560001
1113,7960430.191290194
1212,0.0
1262,104312999.17043008
1286,102681841.76197563
1312,0.0
1530,1631157.4084544538
2,5, 1, 5, 0, 9, 0.00,60.00,Thursday
12,43600777.67482474
60,17820173.74176
281,17820173.74176
1113,7960430.191290194
1212,0.0
1262,67736314.6647506
1286,66104952.6883513
1312,0.0
1530,1631361.9763992913
2,5, 1, 5, 0,10, 0.00,60.00,Thursday
12,43600777.67482474
60,17820173.74176
281,17820173.74176
1113,7960430.191290194
1212,0.0
1262,51399544.58693727
1286,49768171.12169495
1312,0.0
1530,1631373.4652423165
2,5, 1, 5, 0,11, 0.00,60.00,Thursday
12,43600777.67482474
60,17820173.74176
281,17820173.74176
1113,7960430.191290194
1212,0.0
1262,40158499.89125963
1286,38527097.87655165
1312,0.0
1530,1631402.014707982
2,5, 1, 5, 0,12, 0.00,60.00,Thursday
12,43600777.67482474
60,17820173.74176
281,17820173.74176
1113,7960430.191290194
1212,0.0
1262,35487543.5912663
1286,32296662.662335575
1312,0.0
1530,3190880.9289307236
2,5, 1, 5, 0,13, 0.00,60.00,Thursday
12,41620758.37018473
60,17820173.74176
281,15840154.437120002
1113,7960430.191290194
1212,0.0
1262,34264931.85869694
1286,32633581.454558842
1312,0.0
1530,1631350.404138096
2,5, 1, 5, 0,14, 0.00,60.00,Thursday
12,43604514.17855025
60,17820173.74176
281,17820173.74176
1113,7960430.191290194
1212,3736.503725514347
1262,26461777.033857547
1286,24830315.231406085
1312,0.0
1530,1631461.8024514576
2,5, 1, 5, 0,15, 0.00,60.00,Thursday
12,43600777.67482474
60,17820173.74176
281,17820173.74176
1113,7960430.191290194
1212,0.0
1262,22511259.583651286
1286,20879904.294241466
1312,0.0
1530,1631355.289409818
2,5, 1, 5, 0,16, 0.00,60.00,Thursday
12,43600777.67482474
60,17820173.74176
281,17820173.74176
1113,7960430.191290194
1212,0.0
1262,23879432.26672129
1286,22248115.350462593
1312,0.0
1530,1631316.9162586955
2,5, 1, 5, 0,17, 0.00,60.00,Thursday
12,49127977.67482474
60,17820173.74176
281,17820173.74176
1113,7960430.191290194
1212,0.0
1262,30193530.66368904
1286,27002752.29984203
1312,0.0
1530,3190778.3638470084
2,5, 1, 5, 0,18, 0.00,60.00,Thursday
12,36051423.23770473
60,9900096.523200002
281,9900096.523200002
1113,7960430.191290194
1212,0.0
1262,46203474.13662248
1286,44572310.07567499
1312,0.0
1530,1631164.060947493
2,5, 1, 5, 0,19, 0.00,60.00,Thursday
12,30111365.32378473
60,5940057.91392
281,7920077.218560001
1113,7960430.191290194
1212,0.0
1262,53248223.06949862
1286,53176223.06949862
1312,0.0
1530,72000.0
2,5, 1, 5, 0,20, 0.00,60.00,Thursday
12,30111365.32378473
60,5940057.91392
281,7920077.218560001
1113,7960430.191290194
1212,0.0
1262,58565674.42299305
1286,56934559.4572358
1312,0.0
1530,1631114.9657572503
2,5, 1, 5, 0,21, 0.00,60.00,Thursday
12,28131346.019144736
60,3960038.6092800004
281,7920077.218560001
1113,7960430.191290194
1212,0.0
1262,63012218.40844837
1286,61381020.03916307
1312,0.0
1530,1631198.3692853018
2,5, 1, 5, 0,22, 0.00,60.00,Thursday
12,28131346.019144736
60,3960038.6092800004
281,7920077.218560001
1113,7960430.191290194
1212,0.0
1262,66243361.91476032
1286,64612336.825201906
1312,0.0
1530,1631025.0895584186
2,5, 1, 5, 0,23, 0.00,60.00,Thursday
12,18190896.523214538
60,1980019.3046400002
281,7920077.218560001
1113,0.0
1212,0.0
1262,72000.0
1286,0.0
1312,0.0
1530,72000.0
2,5, 1, 5, 0,24, 0.00,60.00,Thursday
12,17200886.87089454
60,990009.6523200001
281,7920077.218560001
1113,0.0
1212,0.0
1262,1631014.2176538259
1286,0.0
1312,0.0
1530,1631014.2176538259
2,6, 1, 6, 0, 1, 0.00,60.00,Friday
12,17200886.87089454
60,990009.6523200001
281,7920077.218560001
1113,0.0
1212,0.0
1262,1631007.0637627812
1286,0.0
1312,0.0
1530,1631007.0637627812
2,6, 1, 6, 0, 2, 0.00,60.00,Friday
12,17200886.87089454
60,990009.6523200001
281,7920077.218560001
1113,0.0
1212,0.0
1262,72000.0
1286,0.0
1312,0.0
1530,72000.0
2,6, 1, 6, 0, 3, 0.00,60.00,Friday
12,18952470.513395403
60,990009.6523200001
281,7920077.218560001
1113,1751583.642500864
1212,0.0
1262,1840827.8275688288
1286,209723.50960737636
1312,0.0
1530,1631104.3179614525
2,6, 1, 6, 0, 4, 0.00,60.00,Friday
12,20631493.65457572
60,990009.6523200001
281,7920077.218560001
1113,3430606.7836811817
1212,0.0
1262,4366289.216054485
1286,2735176.3021387057
1312,0.0
1530,1631112.9139157794
2,6, 1, 6, 0, 5, 0.00,60.00,Friday
12,22010511.69266354
60,990009.6523200001
281,7920077.218560001
1113,4809624.821768997
1212,0.0
1262,4861332.518541429
1286,4789332.518541429
1312,0.0
1530,72000.0
2,6, 1, 6, 0, 6, 0.00,60.00,Friday
12,22513654.85445184
60,1980019.3046400002
281,7920077.218560001
1113,4322758.331237302
1212,0.0
1262,9140801.745704945
1286,7509670.515413126
1312,0.0
1530,1631131.2302918187
2,6, 1, 6, 0, 7, 0.00,60.00,Friday
12,26151326.714504734
60,1980019.3046400002
281,7920077.218560001
1113,7960430.191290194
1212,0.0
1262,93894067.25711173
1286,92263020.96599485
1312,0.0
1530,1631046.2911168782
2,6, 1, 6, 0, 8, 0.00,60.00,Friday
12,24584165.32378473
60,5940057.91392
281,7920077.218560001
1113,7960430.191290194
1212,0.0
1262,108880968.97779572
1286,107249772.80882774
1312,0.0
1530,1631196.168967976
2,6, 1, 6, 0, 9, 0.00,60.00,Friday
12,43600777.67482474
60,17820173.74176
281,17820173.74176
1113,7960430.191290194
1212,0.0
1262,71671267.14580749
1286,70039900.56539753
1312,0.0
1530,1631366.5804099727
2,6, 1, 6, 0,10, 0.00,60.00,Friday
12,43600777.67482474
60,17820173.74176
281,17820173.74176
1113,7960430.191290194
1212,0.0
1262,57088943.06212591
1286,55457567.28591576
1312,0.0
1530,1631375.7762101577
2,6, 1, 6, 0,11, 0.00,60.00,Friday
12,43600777.67482474
60,17820173.74176
281,17820173.74176
1113,7960430.191290194
1212,0.0
1262,50952637.26287624
1286,49321300.61187907
1312,0.0
1530,1631336.6509971714
2,6, 1, 6, 0,12, 0.00,60.00,Friday
12,43600777.67482474
60,17820173.74176
281,17820173.74176
1113,7960430.191290194
1212,0.0
1262,51098465.47187862
1286,49467218.65394761
1312,0.0
1530,1631246.817931012
2,6, 1, 6, 0,13, 0.00,60.00,Friday
12,41620758.37018473