Program Version,EnergyPlus, Version 25.1.0-68a4a7c774, YMD=2025.10.28 18:22
1,5,Environment Title[],Latitude[deg],Longitude[deg],Time Zone[],Elevation[m]
2,8,Day of Simulation[],Month[],Day of Month[],DST Indicator[1=yes 0=no],Hour[],StartMinute[],EndMinute[],DayType
3,5,Cumulative Day of Simulation[],Month[],Day of Month[],DST Indicator[1=yes 0=no],DayType  ! When Daily Meters Requested
4,2,Cumulative Days of Simulation[],Month[]  ! When Monthly Meters Requested
5,1,Cumulative Days of Simulation[] ! When Run Period Meters Requested
6,1,Calendar Year of Simulation[] ! When Annual Meters Requested
12,1,Electricity:Facility [J] !Hourly
1113,1,Fans:Electricity [J] !Hourly
1212,1,Cooling:Electricity [J] !Hourly
1312,1,Heating:Electricity [J] !Hourly
60,1,InteriorLights:Electricity [J] !Hourly
281,1,InteriorEquipment:Electricity [J] !Hourly
1262,1,NaturalGas:Facility [J] !Hourly
1286,1,Heating:NaturalGas [J] !Hourly
1530,1,Water Heater:WaterSystems:NaturalGas [J] !Hourly
14,9,Electricity:Facility [J] !Monthly [Value,Min,Day,Hour,Minute,Max,Day,Hour,Minute]
1264,9,NaturalGas:Facility [J] !Monthly [Value,Min,Day,Hour,Minute,Max,Day,Hour,Minute]
1360,9,Water:Facility [m3] !Monthly [Value,Min,Day,Hour,Minute,Max,Day,Hour,Minute]
462,9,EnergyTransfer:Facility [J] !Monthly [Value,Min,Day,Hour,Minute,Max,Day,Hour,Minute]
955,9,ElectricityPurchased:Facility [J] !Monthly [Value,Min,Day,Hour,Minute,Max,Day,Hour,Minute]
1004,9,ElectricitySurplusSold:Facility [J] !Monthly [Value,Min,Day,Hour,Minute,Max,Day,Hour,Minute]
1053,9,ElectricityNet:Facility [J] !Monthly [Value,Min,Day,Hour,Minute,Max,Day,Hour,Minute]
2287,9,Carbon Equivalent:Facility [kg] !Monthly [Value,Min,Day,Hour,Minute,Max,Day,Hour,Minute]
906,9,PlantLoopHeatingDemand:Facility [J] !Monthly [Value,Min,Day,Hour,Minute,Max,Day,Hour,Minute]
1409,9,MainsWater:Facility [m3] !Monthly [Value,Min,Day,Hour,Minute,Max,Day,Hour,Minute]
1965,9,WaterEnvironmentalFactors:Facility [L] !Monthly [Value,Min,Day,Hour,Minute,Max,Day,Hour,Minute]
1615,9,Source:Facility [J] !Monthly [Value,Min,Day,Hour,Minute,Max,Day,Hour,Minute]
1765,9,SO2:Facility [kg] !Monthly [Value,Min,Day,Hour,Minute,Max,Day,Hour,Minute]
1715,9,NOx:Facility [kg] !Monthly [Value,Min,Day,Hour,Minute,Max,Day,Hour,Minute]
1740,9,N2O:Facility [kg] !Monthly [Value,Min,Day,Hour,Minute,Max,Day,Hour,Minute]
1790,9,PM:Facility [kg] !Monthly [Value,Min,Day,Hour,Minute,Max,Day,Hour,Minute]
1840,9,PM2.5:Facility [kg] !Monthly [Value,Min,Day,Hour,Minute,Max,Day,Hour,Minute]
1815,9,PM10:Facility [kg] !Monthly [Value,Min,Day,Hour,Minute,Max,Day,Hour,Minute]
1665,9,CO:Facility [kg] !Monthly [Value,Min,Day,Hour,Minute,Max,Day,Hour,Minute]
1640,9,CO2:Facility [kg] !Monthly [Value,Min,Day,Hour,Minute,Max,Day,Hour,Minute]
1690,9,CH4:Facility [kg] !Monthly [Value,Min,Day,Hour,Minute,Max,Day,Hour,Minute]
1865,9,NH3:Facility [kg] !Monthly [Value,Min,Day,Hour,Minute,Max,Day,Hour,Minute]
1890,9,NMVOC:Facility [kg] !Monthly [Value,Min,Day,Hour,Minute,Max,Day,Hour,Minute]
1915,9,Hg:Facility [kg] !Monthly [Value,Min,Day,Hour,Minute,Max,Day,Hour,Minute]
1940,9,Pb:Facility [kg] !Monthly [Value,Min,Day,Hour,Minute,Max,Day,Hour,Minute]
1990,9,Nuclear High:Facility [kg] !Monthly [Value,Min,Day,Hour,Minute,Max,Day,Hour,Minute]
2015,9,Nuclear Low:Facility [m3] !Monthly [Value,Min,Day,Hour,Minute,Max,Day,Hour,Minute]
End of Data Dictionary
1,ANNUAL,  41.98, -87.92,  -6.00, 201.00
2,1, 1, 1, 0, 1, 0.00,60.00,Holiday
12,36689171.67181454
60,5068739.009880003
281,23329632.661920004
1113,0.0
1212,0.0
1262,72000.0
1286,0.0
1312,0.0
1530,72000.0
2,1, 1, 1, 0, 2, 0.00,60.00,Holiday
12,36689171.67181454
60,5068739.009880003
281,23329632.661920004
1113,0.0
1212,0.0
1262,1631084.0615643517
1286,0.0
1312,0.0
1530,1631084.0615643517
2,1, 1, 1, 0, 3, 0.00,60.00,Holiday
12,36689171.67181454
60,5068739.009880003
281,23329632.661920004
1113,0.0
1212,0.0
1262,72000.0
1286,0.0
1312,0.0
1530,72000.0
2,1, 1, 1, 0, 4, 0.00,60.00,Holiday
12,36689171.67181454
60,5068739.009880003
281,23329632.661920004
1113,0.0
1212,0.0
1262,1631044.832218078
1286,0.0
1312,0.0
1530,1631044.832218078
2,1, 1, 1, 0, 5, 0.00,60.00,Holiday
12,36689171.67181454
60,5068739.009880003
281,23329632.661920004
1113,0.0
1212,0.0
1262,1631017.9152125048
1286,0.0
1312,0.0
1530,1631017.9152125048
2,1, 1, 1, 0, 6, 0.00,60.00,Holiday
12,38412016.19188933
60,5068739.009880003
281,23329632.661920004
1113,1686603.4599149912
1212,36241.06015979641
1262,72000.0
1286,0.0
1312,0.0
1530,72000.0
2,1, 1, 1, 0, 7, 0.00,60.00,Holiday
12,37262656.13152051
60,5068739.009880003
281,23329632.661920004
1113,562201.1533049971
1212,11283.306400972848
1262,1631031.0804312865
1286,0.0
1312,0.0
1530,1631031.0804312865
2,1, 1, 1, 0, 8, 0.00,60.00,Holiday
12,32310973.168589942
60,5068739.009880003
281,23329632.661920004
1113,1124402.306609994
1212,24599.190165408974
1262,1631002.186328563
1286,0.0
1312,0.0
1530,1631002.186328563
2,1, 1, 1, 0, 9, 0.00,60.00,Holiday
12,28398371.67181454
60,5068739.009880003
281,23329632.661920004
1113,0.0
1212,0.0
1262,72000.0
1286,0.0
1312,0.0
1530,72000.0
2,1, 1, 1, 0,10, 0.00,60.00,Holiday
12,28398371.67181454
60,5068739.009880003
281,23329632.661920004
1113,0.0
1212,0.0
1262,1631096.864319978
1286,0.0
1312,0.0
1530,1631096.864319978
2,1, 1, 1, 0,11, 0.00,60.00,Holiday
12,28398371.67181454
60,5068739.009880003
281,23329632.661920004
1113,0.0
1212,0.0
1262,1631101.793175806
1286,0.0
1312,0.0
1530,1631101.793175806
2,1, 1, 1, 0,12, 0.00,60.00,Holiday
12,28398371.67181454
60,5068739.009880003
281,23329632.661920004
1113,0.0
1212,0.0
1262,72000.0
1286,0.0
1312,0.0
1530,72000.0
2,1, 1, 1, 0,13, 0.00,60.00,Holiday
12,28398371.67181454
60,5068739.009880003
281,23329632.661920004
1113,0.0
1212,0.0
1262,1631069.4065611302
1286,0.0
1312,0.0
1530,1631069.4065611302
2,1, 1, 1, 0,14, 0.00,60.00,Holiday
12,28398371.67181454
60,5068739.009880003
281,23329632.661920004
1113,0.0
1212,0.0
1262,1631130.1980487823
1286,0.0
1312,0.0
1530,1631130.1980487823
2,1, 1, 1, 0,15, 0.00,60.00,Holiday
12,28398371.67181454
60,5068739.009880003
281,23329632.661920004
1113,0.0
1212,0.0
1262,72000.0
1286,0.0
1312,0.0
1530,72000.0
2,1, 1, 1, 0,16, 0.00,60.00,Holiday
12,28398371.67181454
60,5068739.009880003
281,23329632.661920004
1113,0.0
1212,0.0
1262,1631007.782311478
1286,0.0
1312,0.0
1530,1631007.782311478
2,1, 1, 1, 0,17, 0.00,60.00,Holiday
12,33925571.67181454
60,5068739.009880003
281,23329632.661920004
1113,0.0
1212,0.0
1262,1631092.119143686
1286,0.0
1312,0.0
1530,1631092.119143686
2,1, 1, 1, 0,18, 0.00,60.00,Holiday
12,36689171.67181454
60,5068739.009880003
281,23329632.661920004
1113,0.0
1212,0.0
1262,72000.0
1286,0.0
1312,0.0
1530,72000.0
2,1, 1, 1, 0,19, 0.00,60.00,Holiday
12,36689171.67181454
60,5068739.009880003
281,23329632.661920004
1113,0.0
1212,0.0
1262,1631055.3585862066
1286,0.0
1312,0.0
1530,1631055.3585862066
2,1, 1, 1, 0,20, 0.00,60.00,Holiday
12,36689171.67181454
60,5068739.009880003
281,23329632.661920004
1113,0.0
1212,0.0
1262,1631028.6242007518
1286,0.0
1312,0.0
1530,1631028.6242007518
2,1, 1, 1, 0,21, 0.00,60.00,Holiday
12,36689171.67181454
60,5068739.009880003
281,23329632.661920004
1113,0.0
1212,0.0
1262,72000.0
1286,0.0
1312,0.0
1530,72000.0
2,1, 1, 1, 0,22, 0.00,60.00,Holiday
12,36689171.67181454
60,5068739.009880003
281,23329632.661920004
1113,0.0
1212,0.0
1262,1631030.9690894498
1286,0.0
1312,0.0
1530,1631030.9690894498
2,1, 1, 1, 0,23, 0.00,60.00,Holiday
12,36689171.67181454
60,5068739.009880003
281,23329632.661920004
1113,0.0
1212,0.0
1262,1631012.5045059717
1286,0.0
1312,0.0
1530,1631012.5045059717
2,1, 1, 1, 0,24, 0.00,60.00,Holiday
12,36689171.67181454
60,5068739.009880003
281,23329632.661920004
1113,0.0
1212,0.0
1262,72000.0
1286,0.0
1312,0.0
1530,72000.0
2,2, 1, 2, 0, 1, 0.00,60.00,Monday
12,44465715.89245455
60,5068739.009880003
281,31106176.882560004
1113,0.0
1212,0.0
1262,1631099.5100489815
1286,0.0
1312,0.0
1530,1631099.5100489815
2,2, 1, 2, 0, 2, 0.00,60.00,Monday
12,44465715.89245455
60,5068739.009880003
281,31106176.882560004
1113,0.0
1212,0.0
1262,1631092.008973769
1286,0.0
1312,0.0
1530,1631092.008973769
2,2, 1, 2, 0, 3, 0.00,60.00,Monday
12,44465715.89245455
60,5068739.009880003
281,31106176.882560004
1113,0.0
1212,0.0
1262,72000.0
1286,0.0
1312,0.0
1530,72000.0
2,2, 1, 2, 0, 4, 0.00,60.00,Monday
12,44465715.89245455
60,5068739.009880003
281,31106176.882560004
1113,0.0
1212,0.0
1262,1631084.4397770388
1286,0.0
1312,0.0
1530,1631084.4397770388
2,2, 1, 2, 0, 5, 0.00,60.00,Monday
12,44465715.89245455
60,5068739.009880003
281,31106176.882560004
1113,0.0
1212,0.0
1262,1631076.8084348638
1286,0.0
1312,0.0
1530,1631076.8084348638
2,2, 1, 2, 0, 6, 0.00,60.00,Monday
12,49534454.90233455
60,10137478.019760005
281,31106176.882560004
1113,0.0
1212,0.0
1262,72000.0
1286,0.0
1312,0.0
1530,72000.0
2,2, 1, 2, 0, 7, 0.00,60.00,Monday
12,73081885.41882673
60,10137478.019760005
281,31106176.882560004
1113,22829206.820430618
1212,718223.6960615555
1262,21211482.38808603
1286,19580460.644484565
1312,0.0
1530,1631021.7436014684
2,2, 1, 2, 0, 8, 0.00,60.00,Monday
12,87372334.3577316
60,30412434.05928
281,31106176.882560004
1113,22829206.820430618
1212,260916.5954464307
1262,19230682.967342883
1286,17599570.486804888
1312,0.0
1530,1631112.4805379955
2,2, 1, 2, 0, 9, 0.00,60.00,Monday
12,185587733.13772678
60,91237302.17784001
281,69988897.98576
1113,22829206.820430618
1212,1532326.153681641
1262,1987143.917496966
1286,355842.4616374622
1312,0.0
1530,1631301.4558595037
2,2, 1, 2, 0,10, 0.00,60.00,Monday
12,187593547.44021437
60,91237302.17784001
281,69988897.98576
1113,22829206.820430618
1212,3538140.4561692234
1262,1631318.3082768214
1286,0.0
1312,0.0
1530,1631318.3082768214
2,2, 1, 2, 0,11, 0.00,60.00,Monday
12,189643415.81749243
60,91237302.17784001
281,69988897.98576
1113,22829206.820430618
1212,5588008.833447304
1262,1631340.9048736037
1286,0.0
1312,0.0
1530,1631340.9048736037
2,2, 1, 2, 0,12, 0.00,60.00,Monday
12,190827527.21813327
60,91237302.17784001
281,69988897.98576
1113,22829206.820430618
1212,6772120.234088126
1262,1631462.9467627548
1286,0.0
1312,0.0
1530,1631462.9467627548
2,2, 1, 2, 0,13, 0.00,60.00,Monday
12,182863824.88486335
60,91237302.17784001
281,62212353.76512001
1113,22829206.820430618
1212,6584962.121458244
1262,3190943.5321037974
1286,0.0
1312,0.0
1530,3190943.5321037974
2,2, 1, 2, 0,14, 0.00,60.00,Monday
12,191837504.5271642
60,91237302.17784001
281,69988897.98576
1113,22829206.820430618
1212,7782097.543119059
1262,1631315.4117596396
1286,0.0
1312,0.0
1530,1631315.4117596396
2,2, 1, 2, 0,15, 0.00,60.00,Monday
12,192011197.13982382
60,91237302.17784001
281,69988897.98576
1113,22829206.820430618
1212,7955790.155778699
1262,1631354.105492336
1286,0.0
1312,0.0
1530,1631354.105492336
2,2, 1, 2, 0,16, 0.00,60.00,Monday
12,192520011.34008208
60,91237302.17784001
281,69988897.98576
1113,22829206.820430618
1212,8464604.356036926
1262,1631309.0687894917
1286,0.0
1312,0.0
1530,1631309.0687894917
2,2, 1, 2, 0,17, 0.00,60.00,Monday
12,198479062.09675205
60,91237302.17784001
281,69988897.98576
1113,22829206.820430618
1212,8896455.112706887
1262,1631395.7738508868
1286,0.0
1312,0.0
1530,1631395.7738508868
2,2, 1, 2, 0,18, 0.00,60.00,Monday
12,124658884.74246573
60,50687390.098799996
281,38882721.1032
1113,22829206.820430618
1212,3968766.7200205675
1262,1631177.396946
1286,0.0
1312,0.0
1530,1631177.396946
2,2, 1, 2, 0,19, 0.00,60.00,Monday
12,94230280.74241152
60,30412434.05928
281,31106176.882560004
1113,22829206.820430618
1212,1591662.9801263679
1262,1631216.1784962297
1286,0.0
1312,0.0
1530,1631216.1784962297
2,2, 1, 2, 0,20, 0.00,60.00,Monday
12,93760067.19677801
60,30412434.05928
281,31106176.882560004
1113,22829206.820430618
1212,1121449.434492849
1262,1631146.7145835536
1286,0.0
1312,0.0
1530,1631146.7145835536
2,2, 1, 2, 0,21, 0.00,60.00,Monday
12,83342428.84610333
60,20274956.03952001
281,31106176.882560004
1113,22829206.820430618
1212,841289.1035781382
1262,1631106.4076359393
1286,0.0
1312,0.0
1530,1631106.4076359393
2,2, 1, 2, 0,22, 0.00,60.00,Monday
12,83359772.29292098
60,20274956.03952001
281,31106176.882560004
1113,22829206.820430618
1212,858632.5503957967
1262,72000.0
1286,0.0
1312,0.0
1530,72000.0
2,2, 1, 2, 0,23, 0.00,60.00,Monday
12,49534454.90233455
60,10137478.019760005
281,31106176.882560004
1113,0.0
1212,0.0
1262,1631093.7615662839
1286,0.0
1312,0.0
1530,1631093.7615662839
2,2, 1, 2, 0,24, 0.00,60.00,Monday
12,44465715.89245455
60,5068739.009880003
281,31106176.882560004
1113,0.0
1212,0.0
1262,1631085.968938008
1286,0.0
1312,0.0
1530,1631085.968938008
2,3, 1, 3, 0, 1, 0.00,60.00,Tuesday
12,44465715.89245455
60,5068739.009880003
281,31106176.882560004
1113,0.0
1212,0.0
1262,72000.0
1286,0.0
1312,0.0
1530,72000.0
2,3, 1, 3, 0, 2, 0.00,60.00,Tuesday
12,44465715.89245455
60,5068739.009880003
281,31106176.882560004
1113,0.0
1212,0.0
1262,1631078.5855862899
1286,0.0
1312,0.0
1530,1631078.5855862899
2,3, 1, 3, 0, 3, 0.00,60.00,Tuesday
12,44465715.89245455
60,5068739.009880003
281,31106176.882560004
1113,0.0
1212,0.0
1262,1631071.1063605289
1286,0.0
1312,0.0
1530,1631071.1063605289
2,3, 1, 3, 0, 4, 0.00,60.00,Tuesday
12,44465715.89245455
60,5068739.009880003
281,31106176.882560004
1113,0.0
1212,0.0
1262,72000.0
1286,0.0
1312,0.0
1530,72000.0
2,3, 1, 3, 0, 5, 0.00,60.00,Tuesday
12,44465715.89245455
60,5068739.009880003
281,31106176.882560004
1113,0.0
1212,0.0
1262,1631063.5806957497
1286,0.0
1312,0.0
1530,1631063.5806957497
2,3, 1, 3, 0, 6, 0.00,60.00,Tuesday
12,49534454.90233455
60,10137478.019760005
281,31106176.882560004
1113,0.0
1212,0.0
1262,1631105.8088902105
1286,0.0
1312,0.0
1530,1631105.8088902105
2,3, 1, 3, 0, 7, 0.00,60.00,Tuesday
12,73738595.17914832
60,10137478.019760005
281,31106176.882560004
1113,22829206.820430618
1212,1374933.4563831491
1262,72000.0
1286,0.0
1312,0.0
1530,72000.0
2,3, 1, 3, 0, 8, 0.00,60.00,Tuesday
12,87653656.98429166
60,30412434.05928
281,31106176.882560004
1113,22829206.820430618
1212,542239.2220064831
1262,7514715.744280368
1286,5883607.093599761
1312,0.0
1530,1631108.6506806067
2,3, 1, 3, 0, 9, 0.00,60.00,Tuesday
12,187470906.59041184
60,91237302.17784001
281,69988897.98576
1113,22829206.820430618
1212,3415499.6063666865
1262,1631271.1146404468
1286,0.0
1312,0.0
1530,1631271.1146404468
2,3, 1, 3, 0,10, 0.00,60.00,Tuesday
12,189669078.68970865
60,91237302.17784001
281,69988897.98576
1113,22829206.820430618
1212,5613671.705663538
1262,1631370.1791218738
1286,0.0
1312,0.0
1530,1631370.1791218738
2,3, 1, 3, 0,11, 0.00,60.00,Tuesday
12,190846517.4869094
60,91237302.17784001
281,69988897.98576
1113,22829206.820430618
1212,6791110.502864266
1262,3190498.426272007
1286,0.0
1312,0.0
1530,3190498.426272007
2,3, 1, 3, 0,12, 0.00,60.00,Tuesday
12,191676655.7495039
60,91237302.17784001
281,69988897.98576
1113,22829206.820430618
1212,7621248.765458795
1262,1631274.505883984
1286,0.0
1312,0.0
1530,1631274.505883984
2,3, 1, 3, 0,13, 0.00,60.00,Tuesday
12,183613980.65126958
60,91237302.17784001
281,62212353.76512001
1113,22829206.820430618
1212,7335117.887864482
1262,1631452.311176042
1286,0.0
1312,0.0
1530,1631452.311176042
2,3, 1, 3, 0,14, 0.00,60.00,Tuesday
12,192700447.83359727
60,91237302.17784001
281,69988897.98576
1113,22829206.820430618
1212,8645040.849552128
1262,1631310.1676296487
1286,0.0
1312,0.0
1530,1631310.1676296487
2,3, 1, 3, 0,15, 0.00,60.00,Tuesday
12,193016518.2213782
60,91237302.17784001
281,69988897.98576
1113,22829206.820430618
1212,8961111.237333069
1262,1631269.6514087324
1286,0.0
1312,0.0
1530,1631269.6514087324
2,3, 1, 3, 0,16, 0.00,60.00,Tuesday
12,193189460.27285188
60,91237302.17784001
281,69988897.98576
1113,22829206.820430618
1212,9134053.288806759
1262,1631303.1489542164
1286,0.0
1312,0.0
1530,1631303.1489542164
2,3, 1, 3, 0,17, 0.00,60.00,Tuesday
12,198745477.94533747
60,91237302.17784001
281,69988897.98576
1113,22829206.820430618
1212,9162870.961292354
1262,3190845.3996586353
1286,0.0
1312,0.0
1530,3190845.3996586353
2,3, 1, 3, 0,18, 0.00,60.00,Tuesday
12,125014055.51437165
60,50687390.098799996
281,38882721.1032
1113,22829206.820430618
1212,4323937.491926486
1262,1631246.8346150818
1286,0.0
1312,0.0
1530,1631246.8346150818
2,3, 1, 3, 0,19, 0.00,60.00,Tuesday
12,94394500.87466986
60,30412434.05928
281,31106176.882560004
1113,22829206.820430618
1212,1755883.1123847144
1262,72000.0
1286,0.0
1312,0.0
1530,72000.0
2,3, 1, 3, 0,20, 0.00,60.00,Tuesday
12,93601336.713462
60,30412434.05928
281,31106176.882560004
1113,22829206.820430618
1212,962718.9511768221
1262,1631192.341122264
1286,0.0
1312,0.0
1530,1631192.341122264
2,3, 1, 3, 0,21, 0.00,60.00,Tuesday
12,83276612.67159225
60,20274956.03952001
281,31106176.882560004
1113,22829206.820430618
1212,775472.929067074
1262,1631136.389331948
1286,0.0
1312,0.0
1530,1631136.389331948
2,3, 1, 3, 0,22, 0.00,60.00,Tuesday
12,83277116.79315163
60,20274956.03952001
281,31106176.882560004
1113,22829206.820430618
1212,775977.0506264466
1262,1631098.4136891516
1286,0.0
1312,0.0
1530,1631098.4136891516
2,3, 1, 3, 0,23, 0.00,60.00,Tuesday
12,49534454.90233455
60,10137478.019760005
281,31106176.882560004
1113,0.0
1212,0.0
1262,72000.0
1286,0.0
1312,0.0
1530,72000.0
2,3, 1, 3, 0,24, 0.00,60.00,Tuesday
12,44465715.89245455
60,5068739.009880003
281,31106176.882560004
1113,0.0
1212,0.0
1262,1631085.034452846
1286,0.0
1312,0.0
1530,1631085.034452846
2,4, 1, 4, 0, 1, 0.00,60.00,Wednesday
12,44465715.89245455
60,5068739.009880003
281,31106176.882560004
1113,0.0
1212,0.0
1262,1631077.7519407629
1286,0.0
1312,0.0
1530,1631077.7519407629
2,4, 1, 4, 0, 2, 0.00,60.00,Wednesday
12,44465715.89245455
60,5068739.009880003
281,31106176.882560004
1113,0.0
1212,0.0
1262,72000.0
1286,0.0
1312,0.0
1530,72000.0
2,4, 1, 4, 0, 3, 0.00,60.00,Wednesday
12,44465715.89245455
60,5068739.009880003
281,31106176.882560004
1113,0.0
1212,0.0
1262,1631070.4566188606
1286,0.0
1312,0.0
1530,1631070.4566188606
2,4, 1, 4, 0, 4, 0.00,60.00,Wednesday
12,44465715.89245455
60,5068739.009880003
281,31106176.882560004
1113,0.0
1212,0.0
1262,1631063.1177322879
1286,0.0
1312,0.0
1530,1631063.1177322879
2,4, 1, 4, 0, 5, 0.00,60.00,Wednesday
12,44465715.89245455
60,5068739.009880003
281,31106176.882560004
1113,0.0
1212,0.0
1262,72000.0
1286,0.0
1312,0.0
1530,72000.0
2,4, 1, 4, 0, 6, 0.00,60.00,Wednesday
12,49534454.90233455
60,10137478.019760005
281,31106176.882560004
1113,0.0
1212,0.0
1262,1631077.8755789008
1286,0.0
1312,0.0
1530,1631077.8755789008
2,4, 1, 4, 0, 7, 0.00,60.00,Wednesday
12,73627667.66367923
60,10137478.019760005
281,31106176.882560004
1113,22829206.820430618
1212,1264005.9409140612
1262,2331584.817773784
1286,700469.7408495516
1312,0.0
1530,1631115.0769242325
2,4, 1, 4, 0, 8, 0.00,60.00,Wednesday
12,87660214.63048269
60,30412434.05928
281,31106176.882560004
1113,22829206.820430618
1212,548796.8681975184
1262,7146252.073308825
1286,5515128.862858531
1312,0.0
1530,1631123.2104502937
2,4, 1, 4, 0, 9, 0.00,60.00,Wednesday
12,187797634.68584803
60,91237302.17784001
281,69988897.98576
1113,22829206.820430618
1212,3742227.7018029033
1262,1631242.1006260815
1286,0.0
1312,0.0
1530,1631242.1006260815
2,4, 1, 4, 0,10, 0.00,60.00,Wednesday
12,190254348.93305427
60,91237302.17784001
281,69988897.98576
1113,22829206.820430618
1212,6198941.949009165
1262,1631373.4318630707
1286,0.0
1312,0.0
1530,1631373.4318630707
2,4, 1, 4, 0,11, 0.00,60.00,Wednesday
12,191437114.3343716
60,91237302.17784001
281,69988897.98576
1113,22829206.820430618
1212,7381707.350326478
1262,1631400.0086808852
1286,0.0
1312,0.0
1530,1631400.0086808852
2,4, 1, 4, 0,12, 0.00,60.00,Wednesday
12,192252294.33112907
60,91237302.17784001
281,69988897.98576
1113,22829206.820430618
1212,8196887.347083943
1262,1631318.36803797
1286,0.0
1312,0.0
1530,1631318.36803797
2,4, 1, 4, 0,13, 0.00,60.00,Wednesday
12,184198887.43452406
60,91237302.17784001
281,62212353.76512001
1113,22829206.820430618
1212,7920024.671118975
1262,3190785.0904086404
1286,0.0
1312,0.0
1530,3190785.0904086404
2,4, 1, 4, 0,14, 0.00,60.00,Wednesday
12,193291194.44103372
60,91237302.17784001
281,69988897.98576
1113,22829206.820430618
1212,9235787.456988577
1262,1631432.937693366
1286,0.0
1312,0.0
1530,1631432.937693366
2,4, 1, 4, 0,15, 0.00,60.00,Wednesday
12,193518124.85284668
60,91237302.17784001
281,69988897.98576
1113,22829206.820430618
1212,9462717.86880153
1262,1631229.713293888
1286,0.0
1312,0.0
1530,1631229.713293888
2,4, 1, 4, 0,16, 0.00,60.00,Wednesday
12,193587470.9285214
60,91237302.17784001
281,69988897.98576
1113,22829206.820430618
1212,9532063.944476256
1262,1631283.6774784725
1286,0.0
1312,0.0
1530,1631283.6774784725
2,4, 1, 4, 0,17, 0.00,60.00,Wednesday
12,198824869.96453956
60,91237302.17784001
281,69988897.98576
1113,22829206.820430618
1212,9242262.980494427
1262,1631383.7199220615
1286,0.0
1312,0.0
1530,1631383.7199220615
2,4, 1, 4, 0,18, 0.00,60.00,Wednesday
12,124701733.4386059
60,50687390.098799996
281,38882721.1032
1113,22829206.820430618
1212,4011615.4161607567
1262,1631241.9757692202
1286,0.0
1312,0.0
1530,1631241.9757692202
2,4, 1, 4, 0,19, 0.00,60.00,Wednesday
12,93837024.78110418
60,30412434.05928
281,31106176.882560004
1113,22829206.820430618
1212,1198407.018819016
1262,1631103.3822964644
1286,0.0
1312,0.0
1530,1631103.3822964644
2,4, 1, 4, 0,20, 0.00,60.00,Wednesday
12,93415253.89249715
60,30412434.05928
281,31106176.882560004
1113,22829206.820430618
1212,776636.1302119764
1262,1631172.1221222745
1286,0.0
1312,0.0
1530,1631172.1221222745
2,4, 1, 4, 0,21, 0.00,60.00,Wednesday
12,83247336.20058048
60,20274956.03952001
281,31106176.882560004
1113,22829206.820430618
1212,746196.4580553004
1262,1631138.1893290188
1286,0.0
1312,0.0
1530,1631138.1893290188
2,4, 1, 4, 0,22, 0.00,60.00,Wednesday
12,83247923.56103119
60,20274956.03952001
281,31106176.882560004
1113,22829206.820430618
1212,746783.818506012
1262,72000.0
1286,0.0
1312,0.0
1530,72000.0
2,4, 1, 4, 0,23, 0.00,60.00,Wednesday
12,49534454.90233455
60,10137478.019760005
281,31106176.882560004
1113,0.0
1212,0.0
1262,1631097.9086623
1286,0.0
1312,0.0
1530,1631097.9086623
2,4, 1, 4, 0,24, 0.00,60.00,Wednesday
12,44465715.89245455
60,5068739.009880003
281,31106176.882560004
1113,0.0
1212,0.0
1262,1631090.755785782
1286,0.0
1312,0.0
1530,1631090.755785782
2,5, 1, 5, 0, 1, 0.00,60.00,Thursday
12,44465715.89245455
60,5068739.009880003
281,31106176.882560004
1113,0.0
1212,0.0
1262,72000.0
1286,0.0
1312,0.0
1530,72000.0
2,5, 1, 5, 0, 2, 0.00,60.00,Thursday
12,44465715.89245455
60,5068739.009880003
281,31106176.882560004
1113,0.0
1212,0.0
1262,1631083.8000515979
1286,0.0
1312,0.0
1530,1631083.8000515979
2,5, 1, 5, 0, 3, 0.00,60.00,Thursday
12,44465715.89245455
60,5068739.009880003
281,31106176.882560004
1113,0.0
1212,0.0
1262,1631076.73078211
1286,0.0
1312,0.0
1530,1631076.73078211
2,5, 1, 5, 0, 4, 0.00,60.00,Thursday
12,44465715.89245455
60,5068739.009880003
281,31106176.882560004
1113,0.0
1212,0.0
1262,72000.0
1286,0.0
1312,0.0
1530,72000.0
2,5, 1, 5, 0, 5, 0.00,60.00,Thursday
12,44465715.89245455
60,5068739.009880003
281,31106176.882560004
1113,0.0
1212,0.0
1262,1631084.024541582
1286,0.0
1312,0.0
1530,1631084.024541582
2,5, 1, 5, 0, 6, 0.00,60.00,Thursday
12,49534454.90233455
60,10137478.019760005
281,31106176.882560004
1113,0.0
1212,0.0
1262,1631128.466248522
1286,0.0
1312,0.0
1530,1631128.466248522
2,5, 1, 5, 0, 7, 0.00,60.00,Thursday
12,73393230.86046264
60,10137478.019760005
281,31106176.882560004
1113,22829206.820430618
1212,1029569.1376974689
1262,2848180.730445876
1286,2776180.730445876
1312,0.0
1530,72000.0
2,5, 1, 5, 0, 8, 0.00,60.00,Thursday
12,87539892.65965275
60,30412434.05928
281,31106176.882560004
1113,22829206.820430618
1212,428474.89736759156
1262,18683996.92109429
1286,17052778.416958645
1312,0.0
1530,1631218.5041356508
2,5, 1, 5, 0, 9, 0.00,60.00,Thursday
12,185576840.6195742
60,91237302.17784001
281,69988897.98576
1113,22829206.820430618
1212,1521433.635529064
1262,2252485.8776521757
1286,621117.6965687129
1312,0.0
1530,1631368.181083463
2,5, 1, 5, 0,10, 0.00,60.00,Thursday
12,187865043.62129986
60,91237302.17784001
281,69988897.98576
1113,22829206.820430618
1212,3809636.6372547178
1262,1631372.813661272
1286,0.0
1312,0.0
1530,1631372.813661272
2,5, 1, 5, 0,11, 0.00,60.00,Thursday
12,189802232.7535444
60,91237302.17784001
281,69988897.98576
1113,22829206.820430618
1212,5746825.769499249
1262,1631401.412252304
1286,0.0
1312,0.0
1530,1631401.412252304
2,5, 1, 5, 0,12, 0.00,60.00,Thursday
12,190990048.39612088
60,91237302.17784001
281,69988897.98576
1113,22829206.820430618
1212,6934641.4120757505
1262,3190879.629245234
1286,0.0
1312,0.0
1530,3190879.629245234
2,5, 1, 5, 0,13, 0.00,60.00,Thursday
12,183190305.5983788
60,91237302.17784001
281,62212353.76512001
1113,22829206.820430618
1212,6911442.834973724
1262,1631349.640803665
1286,0.0
1312,0.0
1530,1631349.640803665
2,5, 1, 5, 0,14, 0.00,60.00,Thursday
12,192478118.1185025
60,91237302.17784001
281,69988897.98576
1113,22829206.820430618
1212,8422711.134457342
1262,1631461.041337816
1286,0.0
1312,0.0
1530,1631461.041337816
2,5, 1, 5, 0,15, 0.00,60.00,Thursday
12,193098375.64196283
60,91237302.17784001
281,69988897.98576
1113,22829206.820430618
1212,9042968.65791771
1262,1631354.5794911862
1286,0.0
1312,0.0
1530,1631354.5794911862
2,5, 1, 5, 0,16, 0.00,60.00,Thursday
12,193084396.45010212
60,91237302.17784001
281,69988897.98576
1113,22829206.820430618
1212,9028989.466056997
1262,1631316.2854457207
1286,0.0
1312,0.0
1530,1631316.2854457207
2,5, 1, 5, 0,17, 0.00,60.00,Thursday
12,198130365.90313753
60,91237302.17784001
281,69988897.98576
1113,22829206.820430618
1212,8547758.919092376
1262,3190776.9842776144
1286,0.0
1312,0.0
1530,3190776.9842776144
2,5, 1, 5, 0,18, 0.00,60.00,Thursday
12,124159921.58718935
60,50687390.098799996
281,38882721.1032
1113,22829206.820430618
1212,3469803.5647441978
1262,1631163.3542872719
1286,0.0
1312,0.0
1530,1631163.3542872719
2,5, 1, 5, 0,19, 0.00,60.00,Thursday
12,93618050.03417379
60,30412434.05928
281,31106176.882560004
1113,22829206.820430618
1212,979432.2718886377
1262,72000.0
1286,0.0
1312,0.0
1530,72000.0
2,5, 1, 5, 0,20, 0.00,60.00,Thursday
12,93378623.4348896
60,30412434.05928
281,31106176.882560004
1113,22829206.820430618
1212,740005.6726044263
1262,1631114.2901569607
1286,0.0
1312,0.0
1530,1631114.2901569607
2,5, 1, 5, 0,21, 0.00,60.00,Thursday
12,83197825.94103208
60,20274956.03952001
281,31106176.882560004
1113,22829206.820430618
1212,696686.1985069129
1262,3083726.919210054
1286,1452529.2102190738
1312,0.0
1530,1631197.7089909802
2,5, 1, 5, 0,22, 0.00,60.00,Thursday
12,83195018.89225087
60,20274956.03952001
281,31106176.882560004
1113,22829206.820430618
1212,693879.1497256823
1262,3035067.1918879887
1286,1404042.756375708
1312,0.0
1530,1631024.4355122806
2,5, 1, 5, 0,23, 0.00,60.00,Thursday
12,49534454.90233455
60,10137478.019760005
281,31106176.882560004
1113,0.0
1212,0.0
1262,72000.0
1286,0.0
1312,0.0
1530,72000.0
2,5, 1, 5, 0,24, 0.00,60.00,Thursday
12,44465715.89245455
60,5068739.009880003
281,31106176.882560004
1113,0.0
1212,0.0
1262,1631013.5815693187
1286,0.0
1312,0.0
1530,1631013.5815693187
2,6, 1, 6, 0, 1, 0.00,60.00,Friday
12,44465715.89245455
60,5068739.009880003
281,31106176.882560004
1113,0.0
1212,0.0
1262,1631006.4301292652
1286,0.0
1312,0.0
1530,1631006.4301292652
2,6, 1, 6, 0, 2, 0.00,60.00,Friday
12,44465715.89245455
60,5068739.009880003
281,31106176.882560004
1113,0.0
1212,0.0
1262,72000.0
1286,0.0
1312,0.0
1530,72000.0
2,6, 1, 6, 0, 3, 0.00,60.00,Friday
12,44465715.89245455
60,5068739.009880003
281,31106176.882560004
1113,0.0
1212,0.0
1262,1631103.726673415
1286,0.0
1312,0.0
1530,1631103.726673415
2,6, 1, 6, 0, 4, 0.00,60.00,Friday
12,44465715.89245455
60,5068739.009880003
281,31106176.882560004
1113,0.0
1212,0.0
1262,1631097.0007232674
1286,0.0
1312,0.0
1530,1631097.0007232674
2,6, 1, 6, 0, 5, 0.00,60.00,Friday
12,44465715.89245455
60,5068739.009880003
281,31106176.882560004
1113,0.0
1212,0.0
1262,72000.0
1286,0.0
1312,0.0
1530,72000.0
2,6, 1, 6, 0, 6, 0.00,60.00,Friday
12,49534454.90233455
60,10137478.019760005
281,31106176.882560004
1113,0.0
1212,0.0
1262,1631121.4961006814
1286,0.0
1312,0.0
1530,1631121.4961006814
2,6, 1, 6, 0, 7, 0.00,60.00,Friday
12,73260511.55091937
60,10137478.019760005
281,31106176.882560004
1113,22829206.820430618
1212,896849.8281542056
1262,5664470.480083695
1286,4033424.897331271
1312,0.0
1530,1631045.5827524238
2,6, 1, 6, 0, 8, 0.00,60.00,Friday
12,87386808.1339944
60,30412434.05928
281,31106176.882560004
1113,22829206.820430618
1212,275390.37170923356
1262,23345613.215154774
1286,21714417.799150757
1312,0.0
1530,1631195.4160040207
2,6, 1, 6, 0, 9, 0.00,60.00,Friday
12,185414973.1302871
60,91237302.17784001
281,69988897.98576
1113,22829206.820430618
1212,1359566.1462419527
1262,2225703.030006076
1286,594337.1548541558
1312,0.0
1530,1631365.8751519201
2,6, 1, 6, 0,10, 0.00,60.00,Friday
12,187093145.3376236
60,91237302.17784001
281,69988897.98576
1113,22829206.820430618
1212,3037738.3535784967
1262,1631375.0956774733
1286,0.0
1312,0.0
1530,1631375.0956774733
2,6, 1, 6, 0,11, 0.00,60.00,Friday
12,188518702.84511265
60,91237302.17784001
281,69988897.98576
1113,22829206.820430618
1212,4463295.86106753
1262,1631335.9122146044
1286,0.0
1312,0.0
1530,1631335.9122146044
2,6, 1, 6, 0,12, 0.00,60.00,Friday
12,188901498.45081213
60,91237302.17784001
281,69988897.98576
1113,22829206.820430618
1212,4846091.46676701
1262,1631245.975160488
1286,0.0
1312,0.0
1530,1631245.975160488
2,6, 1, 6, 0,13, 0.00,60.00,Friday
12,180612318.25202656
60,91237302.17784001
281,62212353.76512001
1113,22829206.820430618
1212,4333455.488621466
1262,1631376.7892534186
1286,0.0
1312,0.0
1530,1631376.7892534186
2,6, 1, 6, 0,14, 0.00,60.00,Friday
12,189393993.88609266
60,91237302.17784001
281,69988897.98576
1113,22829206.820430618
1212,5338586.902047547
1262,3190874.0251085977
1286,0.0
1312,0.0
1530,3190874.0251085977
2,6, 1, 6, 0,15, 0.00,60.00,Friday
12,189824574.12477013
60,91237302.17784001
281,69988897.98576
1113,22829206.820430618
1212,5769167.140725017
1262,1631168.4748715216
1286,0.0
1312,0.0
1530,1631168.4748715216