Program Version,EnergyPlus, Version 25.1.0-68a4a7c774, YMD=2025.10.28 18:20
1,5,Environment Title[],Latitude[deg],Longitude[deg],Time Zone[],Elevation[m]
2,8,Day of Simulation[],Month[],Day of Month[],DST Indicator[1=yes 0=no],Hour[],StartMinute[],EndMinute[],DayType
3,5,Cumulative Day of Simulation[],Month[],Day of Month[],DST Indicator[1=yes 0=no],DayType  ! When Daily Meters Requested
4,2,Cumulative Days of Simulation[],Month[]  ! When Monthly Meters Requested
5,1,Cumulative Days of Simulation[] ! When Run Period Meters Requested
6,1,Calendar Year of Simulation[] ! When Annual Meters Requested
12,1,Electricity:Facility [J] !Hourly
1113,1,Fans:Electricity [J] !Hourly
1212,1,Cooling:Electricity [J] !Hourly
1312,1,Heating:Electricity [J] !Hourly
60,1,InteriorLights:Electricity [J] !Hourly
281,1,InteriorEquipment:Electricity [J] !Hourly
1262,1,NaturalGas:Facility [J] !Hourly
1286,1,Heating:NaturalGas [J] !Hourly
1530,1,Water Heater:WaterSystems:NaturalGas [J] !Hourly
14,9,Electricity:Facility [J] !Monthly [Value,Min,Day,Hour,Minute,Max,Day,Hour,Minute]
1264,9,NaturalGas:Facility [J] !Monthly [Value,Min,Day,Hour,Minute,Max,Day,Hour,Minute]
1360,9,Water:Facility [m3] !Monthly [Value,Min,Day,Hour,Minute,Max,Day,Hour,Minute]
462,9,EnergyTransfer:Facility [J] !Monthly [Value,Min,Day,Hour,Minute,Max,Day,Hour,Minute]
955,9,ElectricityPurchased:Facility [J] !Monthly [Value,Min,Day,Hour,Minute,Max,Day,Hour,Minute]
1004,9,ElectricitySurplusSold:Facility [J] !Monthly [Value,Min,Day,Hour,Minute,Max,Day,Hour,Minute]
1053,9,ElectricityNet:Facility [J] !Monthly [Value,Min,Day,Hour,Minute,Max,Day,Hour,Minute]
2287,9,Carbon Equivalent:Facility [kg] !Monthly [Value,Min,Day,Hour,Minute,Max,Day,Hour,Minute]
906,9,PlantLoopHeatingDemand:Facility [J] !Monthly [Value,Min,Day,Hour,Minute,Max,Day,Hour,Minute]
1409,9,MainsWater:Facility [m3] !Monthly [Value,Min,Day,Hour,Minute,Max,Day,Hour,Minute]
1965,9,WaterEnvironmentalFactors:Facility [L] !Monthly [Value,Min,Day,Hour,Minute,Max,Day,Hour,Minute]
1615,9,Source:Facility [J] !Monthly [Value,Min,Day,Hour,Minute,Max,Day,Hour,Minute]
1765,9,SO2:Facility [kg] !Monthly [Value,Min,Day,Hour,Minute,Max,Day,Hour,Minute]
1715,9,NOx:Facility [kg] !Monthly [Value,Min,Day,Hour,Minute,Max,Day,Hour,Minute]
1740,9,N2O:Facility [kg] !Monthly [Value,Min,Day,Hour,Minute,Max,Day,Hour,Minute]
1790,9,PM:Facility [kg] !Monthly [Value,Min,Day,Hour,Minute,Max,Day,Hour,Minute]
1840,9,PM2.5:Facility [kg] !Monthly [Value,Min,Day,Hour,Minute,Max,Day,Hour,Minute]
1815,9,PM10:Facility [kg] !Monthly [Value,Min,Day,Hour,Minute,Max,Day,Hour,Minute]
1665,9,CO:Facility [kg] !Monthly [Value,Min,Day,Hour,Minute,Max,Day,Hour,Minute]
1640,9,CO2:Facility [kg] !Monthly [Value,Min,Day,Hour,Minute,Max,Day,Hour,Minute]
1690,9,CH4:Facility [kg] !Monthly [Value,Min,Day,Hour,Minute,Max,Day,Hour,Minute]
1865,9,NH3:Facility [kg] !Monthly [Value,Min,Day,Hour,Minute,Max,Day,Hour,Minute]
1890,9,NMVOC:Facility [kg] !Monthly [Value,Min,Day,Hour,Minute,Max,Day,Hour,Minute]
1915,9,Hg:Facility [kg] !Monthly [Value,Min,Day,Hour,Minute,Max,Day,Hour,Minute]
1940,9,Pb:Facility [kg] !Monthly [Value,Min,Day,Hour,Minute,Max,Day,Hour,Minute]
1990,9,Nuclear High:Facility [kg] !Monthly [Value,Min,Day,Hour,Minute,Max,Day,Hour,Minute]
2015,9,Nuclear Low:Facility [m3] !Monthly [Value,Min,Day,Hour,Minute,Max,Day,Hour,Minute]
End of Data Dictionary
1,ANNUAL,  41.98, -87.92,  -6.00, 201.00
2,1, 1, 1, 0, 1, 0.00,60.00,Holiday
12,22862819.878255658
60,1525498.1445600004
281,7132485.89664
1113,5914035.837041119
1212,0.0
1262,8703133.671893097
1286,8631133.671893097
1312,0.0
1530,72000.0
2,1, 1, 1, 0, 2, 0.00,60.00,Holiday
12,23540290.220198732
60,1525498.1445600004
281,7132485.89664
1113,6591506.178984194
1212,0.0
1262,11887420.603869604
1286,10256336.483309474
1312,0.0
1530,1631084.1205601285
2,1, 1, 1, 0, 3, 0.00,60.00,Holiday
12,24158196.26047891
60,1525498.1445600004
281,7132485.89664
1113,7209412.219264368
1212,0.0
1262,11986103.735021401
1286,11914103.735021401
1312,0.0
1530,72000.0
2,1, 1, 1, 0, 4, 0.00,60.00,Holiday
12,23344105.362205233
60,1525498.1445600004
281,7132485.89664
1113,6395321.320990694
1212,0.0
1262,10923621.432603467
1286,9292576.3133765
1312,0.0
1530,1631045.1192269686
2,1, 1, 1, 0, 5, 0.00,60.00,Holiday
12,24942935.692452908
60,1525498.1445600004
281,7132485.89664
1113,7994151.651238369
1212,0.0
1262,12367475.046471938
1286,10736367.795566516
1312,0.0
1530,1631107.250905423
2,1, 1, 1, 0, 6, 0.00,60.00,Holiday
12,23265631.419007834
60,1525498.1445600004
281,7132485.89664
1113,6316847.377793294
1212,0.0
1262,9745269.635080816
1286,9673269.635080816
1312,0.0
1530,72000.0
2,1, 1, 1, 0, 7, 0.00,60.00,Holiday
12,24942935.692452908
60,1525498.1445600004
281,7132485.89664
1113,7994151.651238369
1212,0.0
1262,13080372.772437045
1286,11449341.537193269
1312,0.0
1530,1631031.2352437777
2,1, 1, 1, 0, 8, 0.00,60.00,Holiday
12,17659957.475810435
60,1525498.1445600004
281,7132485.89664
1113,6238373.434595894
1212,0.0
1262,11204091.753206763
1286,9572999.560231434
1312,0.0
1530,1631092.192975328
2,1, 1, 1, 0, 9, 0.00,60.00,Holiday
12,14854323.995035242
60,1525498.1445600004
281,7132485.89664
1113,6188081.388771575
1212,8258.56504912853
1262,8616916.977455713
1286,8544916.977455713
1312,0.0
1530,72000.0
2,1, 1, 1, 0,10, 0.00,60.00,Holiday
12,11359097.966423908
60,1525498.1445600004
281,7132485.89664
1113,2699341.4906499335
1212,1772.4345594354913
1262,5809554.582140736
1286,4178452.2304178597
1312,0.0
1530,1631102.3517228763
2,1, 1, 1, 0,11, 0.00,60.00,Holiday
12,12156284.728419024
60,1525498.1445600004
281,7132485.89664
1113,3494812.7990598017
1212,3487.8881446821056
1262,5996626.8691789545
1286,4365524.981220307
1312,0.0
1530,1631101.887958647
2,1, 1, 1, 0,12, 0.00,60.00,Holiday
12,12228962.945044475
60,1525498.1445600004
281,7132485.89664
1113,3567920.228031108
1212,3058.6757988285362
1262,2333428.217067187
1286,2261428.217067187
1312,0.0
1530,72000.0
2,1, 1, 1, 0,13, 0.00,60.00,Holiday
12,13125285.337367713
60,1525498.1445600004
281,7132485.89664
1113,4459900.285038885
1212,7401.011114288948
1262,4131677.339929577
1286,2500607.642999447
1312,0.0
1530,1631069.6969301302
2,1, 1, 1, 0,14, 0.00,60.00,Holiday
12,12237218.898827232
60,1525498.1445600004
281,7132485.89664
1113,3567920.228031108
1212,11314.629581585203
1262,2916746.373012518
1286,1285616.0660796214
1312,0.0
1530,1631130.3069328966
2,1, 1, 1, 0,15, 0.00,60.00,Holiday
12,12985003.118252825
60,1525498.1445600004
281,7132485.89664
1113,4315137.1621420225
1212,11881.914896263286
1262,1925375.5892700232
1286,1853375.5892700232
1312,0.0
1530,72000.0
2,1, 1, 1, 0,16, 0.00,60.00,Holiday
12,12227849.225832356
60,1525498.1445600004
281,7132485.89664
1113,3567920.228031108
1212,1944.9565867079461
1262,3005141.2507856945
1286,1374133.366209239
1312,0.0
1530,1631007.8845764555
2,1, 1, 1, 0,17, 0.00,60.00,Holiday
12,18645084.326253425
60,1525498.1445600004
281,7132485.89664
1113,4459900.285038885
1212,0.0
1262,4300579.345269693
1286,2669487.0491430545
1312,0.0
1530,1631092.2961266385
2,1, 1, 1, 0,18, 0.00,60.00,Holiday
12,20516704.269245647
60,1525498.1445600004
281,7132485.89664
1113,3567920.228031108
1212,0.0
1262,2123170.147581011
1286,2051170.1475810108
1312,0.0
1530,72000.0
2,1, 1, 1, 0,19, 0.00,60.00,Holiday
12,21408684.326253425
60,1525498.1445600004
281,7132485.89664
1113,4459900.285038885
1212,0.0
1262,5068172.5491958
1286,3437116.9535748763
1312,0.0
1530,1631055.595620924
2,1, 1, 1, 0,20, 0.00,60.00,Holiday
12,20516704.269245647
60,1525498.1445600004
281,7132485.89664
1113,3567920.228031108
1212,0.0
1262,3876441.5160266478
1286,2245412.8179011415
1312,0.0
1530,1631028.6981255063
2,1, 1, 1, 0,21, 0.00,60.00,Holiday
12,22251499.284438368
60,1525498.1445600004
281,7132485.89664
1113,5298515.104379944
1212,4200.13884388157
1262,3321171.3065838106
1286,3249171.3065838106
1312,0.0
1530,72000.0
2,1, 1, 1, 0,22, 0.00,60.00,Holiday
12,21148670.93115387
60,1525498.1445600004
281,7132485.89664
1113,4196881.342536902
1212,3005.54740243276
1262,3780189.807762079
1286,2149066.5872263466
1312,0.0
1530,1631123.220535732
2,1, 1, 1, 0,23, 0.00,60.00,Holiday
12,22561779.70284738
60,1525498.1445600004
281,7132485.89664
1113,5612995.66163284
1212,0.0
1262,4987721.431947093
1286,3356643.4452819857
1312,0.0
1530,1631077.986665108
2,1, 1, 1, 0,24, 0.00,60.00,Holiday
12,21460145.941004336
60,1525498.1445600004
281,7132485.89664
1113,4511361.899789799
1212,0.0
1262,2717633.0330944876
1286,2645633.033094487
1312,0.0
1530,72000.0
2,2, 1, 2, 0, 1, 0.00,60.00,Monday
12,25256312.64107261
60,1525498.1445600004
281,9509981.19552
1113,5927476.218885737
1212,2557.082092331344
1262,5233534.263625504
1286,3602426.724077483
1312,0.0
1530,1631107.5395480203
2,2, 1, 2, 0, 2, 0.00,60.00,Monday
12,24047294.944719605
60,1525498.1445600004
281,9509981.19552
1113,4721015.604625064
1212,0.0
1262,4440749.057757419
1286,2809639.4053245303
1312,0.0
1530,1631109.652432888
2,2, 1, 2, 0, 3, 0.00,60.00,Monday
12,25358582.411397908
60,1525498.1445600004
281,9509981.19552
1113,6032303.0713033695
1212,0.0
1262,3788869.01632962
1286,3716869.01632962
1312,0.0
1530,72000.0
2,2, 1, 2, 0, 4, 0.00,60.00,Monday
12,24152121.797137238
60,1525498.1445600004
281,9509981.19552
1113,4825842.457042696
1212,0.0
1262,4399914.024526858
1286,2768817.6357664755
1312,0.0
1530,1631096.3887603816
2,2, 1, 2, 0, 5, 0.00,60.00,Monday
12,25253755.558980275
60,1525498.1445600004
281,9509981.19552
1113,5927476.218885737
1212,0.0
1262,4476737.350898409
1286,2845660.165615462
1312,0.0
1530,1631077.1852829473
2,2, 1, 2, 0, 6, 0.00,60.00,Monday
12,25205899.10581789
60,3050996.289120001
281,9509981.19552
1113,4354121.6211633505
1212,0.0
1262,1306391.0506892642
1286,1234391.0506892642
1312,0.0
1530,72000.0
2,2, 1, 2, 0, 7, 0.00,60.00,Monday
12,30444759.466140576
60,3050996.289120001
281,9509981.19552
1113,9592981.981486043
1212,0.0
1262,96176716.15674719
1286,94545694.23010573
1312,0.0
1530,1631021.9266414705
2,2, 1, 2, 0, 8, 0.00,60.00,Monday
12,31019552.04438058
60,9152988.86736
281,9509981.19552
1113,9592981.981486043
1212,0.0
1262,85837243.78150535
1286,84206131.09298685
1312,0.0
1530,1631112.6885185016
2,2, 1, 2, 0, 9, 0.00,60.00,Monday
12,58449406.273500584
60,27458966.602080006
281,21397457.689920004
1113,9592981.981486043
1212,0.0
1262,47454286.20681299
1286,45823096.27057624
1312,0.0
1530,1631189.9362367461
2,2, 1, 2, 0,10, 0.00,60.00,Monday
12,58449406.273500584
60,27458966.602080006
281,21397457.689920004
1113,9592981.981486043
1212,0.0
1262,33737424.95340622
1286,32106106.419332087
1312,0.0
1530,1631318.534074141
2,2, 1, 2, 0,11, 0.00,60.00,Monday
12,58449406.273500584
60,27458966.602080006
281,21397457.689920004
1113,9592981.981486043
1212,0.0
1262,25330640.10607437
1286,23699298.97561185
1312,0.0
1530,1631341.1304625203
2,2, 1, 2, 0,12, 0.00,60.00,Monday
12,58449406.273500584
60,27458966.602080006
281,21397457.689920004
1113,9592981.981486043
1212,0.0
1262,19194808.61512001
1286,17563345.440064024
1312,0.0
1530,1631463.1750559823
2,2, 1, 2, 0,13, 0.00,60.00,Monday
12,56071910.97462057
60,27458966.602080006
281,19019962.39104
1113,9592981.981486043
1212,0.0
1262,22055311.38396076
1286,18864367.347017027
1312,0.0
1530,3190944.036943731
2,2, 1, 2, 0,14, 0.00,60.00,Monday
12,58449406.273500584
60,27458966.602080006
281,21397457.689920004
1113,9592981.981486043
1212,0.0
1262,14794197.847288193
1286,13162882.171648033
1312,0.0
1530,1631315.675640161
2,2, 1, 2, 0,15, 0.00,60.00,Monday
12,58449406.273500584
60,27458966.602080006
281,21397457.689920004
1113,9592981.981486043
1212,0.0
1262,15218842.97254713
1286,13587580.084096655
1312,0.0
1530,1631262.8884504756
2,2, 1, 2, 0,16, 0.00,60.00,Monday
12,58452750.515654914
60,27458966.602080006
281,21397457.689920004
1113,9592981.981486043
1212,3344.2421543300757
1262,13728423.893130703
1286,12097114.598852193
1312,0.0
1530,1631309.294278509
2,2, 1, 2, 0,17, 0.00,60.00,Monday
12,64034732.94469245
60,27458966.602080006
281,21397457.689920004
1113,9592981.981486043
1212,58126.67119187288
1262,12919454.760246357
1286,11288058.757388512
1312,0.0
1530,1631396.0028578474
2,2, 1, 2, 0,18, 0.00,60.00,Monday
12,45026239.92150058
60,15254981.445600001
281,11887476.4944
1113,9592981.981486043
1212,0.0
1262,29768077.013600614
1286,28136899.363841113
1312,0.0
1530,1631177.6497594996
2,2, 1, 2, 0,19, 0.00,60.00,Monday
12,36546752.044380575
60,9152988.86736
281,9509981.19552
1113,9592981.981486043
1212,0.0
1262,36919350.18067417
1286,35288133.75874615
1312,0.0
1530,1631216.4219280249
2,2, 1, 2, 0,20, 0.00,60.00,Monday
12,36546752.044380575
60,9152988.86736
281,9509981.19552
1113,9592981.981486043
1212,0.0
1262,36940748.21990287
1286,35309601.27243213
1312,0.0
1530,1631146.9474707353
2,2, 1, 2, 0,21, 0.00,60.00,Monday
12,33495755.755260583
60,6101992.578240002
281,9509981.19552
1113,9592981.981486043
1212,0.0
1262,37836721.10053884
1286,36205614.44085423
1312,0.0
1530,1631106.6596846154
2,2, 1, 2, 0,22, 0.00,60.00,Monday
12,33495755.755260583
60,6101992.578240002
281,9509981.19552
1113,9592981.981486043
1212,0.0
1262,35734646.68949381
1286,35662646.68949381
1312,0.0
1530,72000.0
2,2, 1, 2, 0,23, 0.00,60.00,Monday
12,20851777.484654542
60,3050996.289120001
281,9509981.19552
1113,0.0
1212,0.0
1262,1631111.0561993618
1286,0.0
1312,0.0
1530,1631111.0561993618
2,2, 1, 2, 0,24, 0.00,60.00,Monday
12,19326279.34009454
60,1525498.1445600004
281,9509981.19552
1113,0.0
1212,0.0
1262,1631086.2483403375
1286,0.0
1312,0.0
1530,1631086.2483403375
2,3, 1, 3, 0, 1, 0.00,60.00,Tuesday
12,19326279.34009454
60,1525498.1445600004
281,9509981.19552
1113,0.0
1212,0.0
1262,72000.0
1286,0.0
1312,0.0
1530,72000.0
2,3, 1, 3, 0, 2, 0.00,60.00,Tuesday
12,19326279.34009454
60,1525498.1445600004
281,9509981.19552
1113,0.0
1212,0.0
1262,1631078.87225179
1286,0.0
1312,0.0
1530,1631078.87225179
2,3, 1, 3, 0, 3, 0.00,60.00,Tuesday
12,19326279.34009454
60,1525498.1445600004
281,9509981.19552
1113,0.0
1212,0.0
1262,1631071.3984666339
1286,0.0
1312,0.0
1530,1631071.3984666339
2,3, 1, 3, 0, 4, 0.00,60.00,Tuesday
12,19326279.34009454
60,1525498.1445600004
281,9509981.19552
1113,0.0
1212,0.0
1262,72000.0
1286,0.0
1312,0.0
1530,72000.0
2,3, 1, 3, 0, 5, 0.00,60.00,Tuesday
12,19326279.34009454
60,1525498.1445600004
281,9509981.19552
1113,0.0
1212,0.0
1262,1631063.8735043835
1286,0.0
1312,0.0
1530,1631063.8735043835
2,3, 1, 3, 0, 6, 0.00,60.00,Tuesday
12,20851777.484654542
60,3050996.289120001
281,9509981.19552
1113,0.0
1212,0.0
1262,1631106.10519891
1286,0.0
1312,0.0
1530,1631106.10519891
2,3, 1, 3, 0, 7, 0.00,60.00,Tuesday
12,30444759.466140576
60,3050996.289120001
281,9509981.19552
1113,9592981.981486043
1212,0.0
1262,56880895.97088795
1286,56808895.97088795
1312,0.0
1530,72000.0
2,3, 1, 3, 0, 8, 0.00,60.00,Tuesday
12,31019552.04438058
60,9152988.86736
281,9509981.19552
1113,9592981.981486043
1212,0.0
1262,65522547.69651334
1286,63891438.72399548
1312,0.0
1530,1631108.9725178604
2,3, 1, 3, 0, 9, 0.00,60.00,Tuesday
12,58449406.273500584
60,27458966.602080006
281,21397457.689920004
1113,9592981.981486043
1212,0.0
1262,34748271.51101594
1286,33117000.41606894
1312,0.0
1530,1631271.094946998
2,3, 1, 3, 0,10, 0.00,60.00,Tuesday
12,58449406.273500584
60,27458966.602080006
281,21397457.689920004
1113,9592981.981486043
1212,0.0
1262,26651190.398214135
1286,25019819.869175334
1312,0.0
1530,1631370.5290387974
2,3, 1, 3, 0,11, 0.00,60.00,Tuesday
12,58449406.273500584
60,27458966.602080006
281,21397457.689920004
1113,9592981.981486043
1212,0.0
1262,23092218.959444493
1286,19901719.82837867
1312,0.0
1530,3190499.131065828
2,3, 1, 3, 0,12, 0.00,60.00,Tuesday
12,58449406.273500584
60,27458966.602080006
281,21397457.689920004
1113,9592981.981486043
1212,0.0
1262,17753840.234238233
1286,16122565.359204773
1312,0.0
1530,1631274.875033463
2,3, 1, 3, 0,13, 0.00,60.00,Tuesday
12,56071910.97462057
60,27458966.602080006
281,19019962.39104
1113,9592981.981486043
1212,0.0
1262,19937480.096932106
1286,18306027.42069702
1312,0.0
1530,1631452.676235087
2,3, 1, 3, 0,14, 0.00,60.00,Tuesday
12,58449406.273500584
60,27458966.602080006
281,21397457.689920004
1113,9592981.981486043
1212,0.0
1262,12895301.919499574
1286,11263991.385905359
1312,0.0
1530,1631310.5335942174
2,3, 1, 3, 0,15, 0.00,60.00,Tuesday
12,58449406.273500584
60,27458966.602080006
281,21397457.689920004
1113,9592981.981486043
1212,0.0
1262,12065482.338332046
1286,10434212.33589612
1312,0.0
1530,1631270.0024359268
2,3, 1, 3, 0,16, 0.00,60.00,Tuesday
12,58488789.71052936
60,27458966.602080006
281,21397457.689920004
1113,9592981.981486043
1212,39383.43702877102
1262,12052811.257859219
1286,10421507.76377596
1312,0.0
1530,1631303.4940832588
2,3, 1, 3, 0,17, 0.00,60.00,Tuesday
12,64040317.57865609
60,27458966.602080006
281,21397457.689920004
1113,9592981.981486043
1212,63711.305155511116
1262,14482737.85541407
1286,11291891.82321043
1312,0.0
1530,3190846.032203639
2,3, 1, 3, 0,18, 0.00,60.00,Tuesday
12,45026239.92150058
60,15254981.445600001
281,11887476.4944
1113,9592981.981486043
1212,0.0
1262,29363291.249574915
1286,27732044.079469178
1312,0.0
1530,1631247.1701057367
2,3, 1, 3, 0,19, 0.00,60.00,Tuesday
12,36546752.044380575
60,9152988.86736
281,9509981.19552
1113,9592981.981486043
1212,0.0
1262,36179152.85002578
1286,36107152.85002578
1312,0.0
1530,72000.0
2,3, 1, 3, 0,20, 0.00,60.00,Tuesday
12,36546752.044380575
60,9152988.86736
281,9509981.19552
1113,9592981.981486043
1212,0.0
1262,40012051.8944253
1286,38380859.23182748
1312,0.0
1530,1631192.66259782
2,3, 1, 3, 0,21, 0.00,60.00,Tuesday
12,33495755.755260583
60,6101992.578240002
281,9509981.19552
1113,9592981.981486043
1212,0.0
1262,42612640.39818156
1286,40981503.678221054
1312,0.0
1530,1631136.7199605084
2,3, 1, 3, 0,22, 0.00,60.00,Tuesday
12,33495755.755260583
60,6101992.578240002
281,9509981.19552
1113,9592981.981486043
1212,0.0
1262,43929993.03212635
1286,42298894.31288558
1312,0.0
1530,1631098.7192407628
2,3, 1, 3, 0,23, 0.00,60.00,Tuesday
12,20851777.484654542
60,3050996.289120001
281,9509981.19552
1113,0.0
1212,0.0
1262,72000.0
1286,0.0
1312,0.0
1530,72000.0
2,3, 1, 3, 0,24, 0.00,60.00,Tuesday
12,19326279.34009454
60,1525498.1445600004
281,9509981.19552
1113,0.0
1212,0.0
1262,1631085.3295774774
1286,0.0
1312,0.0
1530,1631085.3295774774
2,4, 1, 4, 0, 1, 0.00,60.00,Wednesday
12,19326279.34009454
60,1525498.1445600004
281,9509981.19552
1113,0.0
1212,0.0
1262,1631078.047485606
1286,0.0
1312,0.0
1530,1631078.047485606
2,4, 1, 4, 0, 2, 0.00,60.00,Wednesday
12,19326279.34009454
60,1525498.1445600004
281,9509981.19552
1113,0.0
1212,0.0
1262,72000.0
1286,0.0
1312,0.0
1530,72000.0
2,4, 1, 4, 0, 3, 0.00,60.00,Wednesday
12,19326279.34009454
60,1525498.1445600004
281,9509981.19552
1113,0.0
1212,0.0
1262,1631070.7538526256
1286,0.0
1312,0.0
1530,1631070.7538526256
2,4, 1, 4, 0, 4, 0.00,60.00,Wednesday
12,19326279.34009454
60,1525498.1445600004
281,9509981.19552
1113,0.0
1212,0.0
1262,1631063.4166196582
1286,0.0
1312,0.0
1530,1631063.4166196582
2,4, 1, 4, 0, 5, 0.00,60.00,Wednesday
12,19326279.34009454
60,1525498.1445600004
281,9509981.19552
1113,0.0
1212,0.0
1262,72000.0
1286,0.0
1312,0.0
1530,72000.0
2,4, 1, 4, 0, 6, 0.00,60.00,Wednesday
12,20851777.484654542
60,3050996.289120001
281,9509981.19552
1113,0.0
1212,0.0
1262,1631078.1838317635
1286,0.0
1312,0.0
1530,1631078.1838317635
2,4, 1, 4, 0, 7, 0.00,60.00,Wednesday
12,30444759.466140576
60,3050996.289120001
281,9509981.19552
1113,9592981.981486043
1212,0.0
1262,61646203.44925596
1286,60015088.2591762
1312,0.0
1530,1631115.1900797542
2,4, 1, 4, 0, 8, 0.00,60.00,Wednesday
12,31019552.04438058
60,9152988.86736
281,9509981.19552
1113,9592981.981486043
1212,0.0
1262,66217752.73724367
1286,64586629.18779677
1312,0.0
1530,1631123.5494468915
2,4, 1, 4, 0, 9, 0.00,60.00,Wednesday
12,58449406.273500584
60,27458966.602080006
281,21397457.689920004
1113,9592981.981486043
1212,0.0
1262,33337361.165845506
1286,31706118.710166533
1312,0.0
1530,1631242.4556789733
2,4, 1, 4, 0,10, 0.00,60.00,Wednesday
12,58449406.273500584
60,27458966.602080006
281,21397457.689920004
1113,9592981.981486043
1212,0.0
1262,23717345.945866253
1286,22085972.193764985
1312,0.0
1530,1631373.7521012684
2,4, 1, 4, 0,11, 0.00,60.00,Wednesday
12,58449406.273500584
60,27458966.602080006
281,21397457.689920004
1113,9592981.981486043
1212,0.0
1262,18635453.215042293
1286,17004052.880687106
1312,0.0
1530,1631400.3343551883
2,4, 1, 4, 0,12, 0.00,60.00,Wednesday
12,58449406.273500584
60,27458966.602080006
281,21397457.689920004
1113,9592981.981486043
1212,0.0
1262,14944946.927825447
1286,13313628.180669077
1312,0.0
1530,1631318.7471563714
2,4, 1, 4, 0,13, 0.00,60.00,Wednesday
12,56071910.97462057
60,27458966.602080006
281,19019962.39104
1113,9592981.981486043
1212,0.0
1262,18651328.594990842
1286,15460542.754566154
1312,0.0
1530,3190785.8404246876
2,4, 1, 4, 0,14, 0.00,60.00,Wednesday
12,58519105.23071323
60,27458966.602080006
281,21397457.689920004
1113,9592981.981486043
1212,69698.95721264902
1262,11002581.588406863
1286,9371148.277695768
1312,0.0
1530,1631433.310711096
2,4, 1, 4, 0,15, 0.00,60.00,Wednesday
12,58540543.718697466
60,27458966.602080006
281,21397457.689920004
1113,9592981.981486043
1212,91137.44519688492
1262,10716281.861720344
1286,9085051.78823719
1312,0.0
1530,1631230.073483155
2,4, 1, 4, 0,16, 0.00,60.00,Wednesday
12,58559836.92499126
60,27458966.602080006
281,21397457.689920004
1113,9592981.981486043
1212,110430.65149068303
1262,11252058.05457585
1286,9620774.062655171
1312,0.0
1530,1631283.9919206775
2,4, 1, 4, 0,17, 0.00,60.00,Wednesday
12,64061809.92011462
60,27458966.602080006
281,21397457.689920004
1113,9592981.981486043
1212,85203.64661404696
1262,13436988.69694655
1286,11805604.646494634
1312,0.0
1530,1631384.0504519155
2,4, 1, 4, 0,18, 0.00,60.00,Wednesday
12,45026239.92150058
60,15254981.445600001
281,11887476.4944
1113,9592981.981486043
1212,0.0
1262,32388915.10116499
1286,30757672.827753037
1312,0.0
1530,1631242.2734119508
2,4, 1, 4, 0,19, 0.00,60.00,Wednesday
12,36546752.044380575
60,9152988.86736
281,9509981.19552
1113,9592981.981486043
1212,0.0
1262,43078861.38411775
1286,41447757.65959905
1312,0.0
1530,1631103.724518701
2,4, 1, 4, 0,20, 0.00,60.00,Wednesday
12,36546752.044380575
60,9152988.86736
281,9509981.19552
1113,9592981.981486043
1212,0.0
1262,46318784.378188446
1286,44687611.930294424
1312,0.0
1530,1631172.4478940174
2,4, 1, 4, 0,21, 0.00,60.00,Wednesday
12,33495755.755260583
60,6101992.578240002
281,9509981.19552
1113,9592981.981486043
1212,0.0
1262,48308201.57787682
1286,46677063.054458186
1312,0.0
1530,1631138.5234186372
2,4, 1, 4, 0,22, 0.00,60.00,Wednesday
12,33495755.755260583
60,6101992.578240002
281,9509981.19552
1113,9592981.981486043
1212,0.0
1262,48252960.13562692
1286,48180960.13562692
1312,0.0
1530,72000.0
2,4, 1, 4, 0,23, 0.00,60.00,Wednesday
12,20851777.484654542
60,3050996.289120001
281,9509981.19552
1113,0.0
1212,0.0
1262,1631098.4236922876
1286,0.0
1312,0.0
1530,1631098.4236922876
2,4, 1, 4, 0,24, 0.00,60.00,Wednesday
12,19326279.34009454
60,1525498.1445600004
281,9509981.19552
1113,0.0
1212,0.0
1262,1631091.0511706157
1286,0.0
1312,0.0
1530,1631091.0511706157
2,5, 1, 5, 0, 1, 0.00,60.00,Thursday
12,19326279.34009454
60,1525498.1445600004
281,9509981.19552
1113,0.0
1212,0.0
1262,72000.0
1286,0.0
1312,0.0
1530,72000.0
2,5, 1, 5, 0, 2, 0.00,60.00,Thursday
12,19326279.34009454
60,1525498.1445600004
281,9509981.19552
1113,0.0
1212,0.0
1262,1631084.0981436435
1286,0.0
1312,0.0
1530,1631084.0981436435
2,5, 1, 5, 0, 3, 0.00,60.00,Thursday
12,19326279.34009454
60,1525498.1445600004
281,9509981.19552
1113,0.0
1212,0.0
1262,1631077.0306380272
1286,0.0
1312,0.0
1530,1631077.0306380272
2,5, 1, 5, 0, 4, 0.00,60.00,Thursday
12,19326279.34009454
60,1525498.1445600004
281,9509981.19552
1113,0.0
1212,0.0
1262,72000.0
1286,0.0
1312,0.0
1530,72000.0
2,5, 1, 5, 0, 5, 0.00,60.00,Thursday
12,19896313.6432675
60,1525498.1445600004
281,9509981.19552
1113,568121.2623706625
1212,1913.0408022979923
1262,1763129.6087325981
1286,132045.34461129693
1312,0.0
1530,1631084.2641213012
2,5, 1, 5, 0, 6, 0.00,60.00,Thursday
12,25278853.938848667
60,3050996.289120001
281,9509981.19552
1113,4427076.454194123
1212,0.0
1262,2898371.229091254
1286,1267242.5241871946
1312,0.0
1530,1631128.7049040594
2,5, 1, 5, 0, 7, 0.00,60.00,Thursday
12,30444759.466140576
60,3050996.289120001
281,9509981.19552
1113,9592981.981486043
1212,0.0
1262,79866072.44090328
1286,79794072.44090328
1312,0.0
1530,72000.0
2,5, 1, 5, 0, 8, 0.00,60.00,Thursday
12,31019552.04438058
60,9152988.86736
281,9509981.19552
1113,9592981.981486043
1212,0.0
1262,96460114.96099994
1286,94828958.04369429
1312,0.0
1530,1631156.9173056385
2,5, 1, 5, 0, 9, 0.00,60.00,Thursday
12,58449406.273500584
60,27458966.602080006
281,21397457.689920004
1113,9592981.981486043
1212,0.0
1262,55927627.61167809
1286,54296266.08632305
1312,0.0
1530,1631361.5253550466
2,5, 1, 5, 0,10, 0.00,60.00,Thursday
12,58449406.273500584
60,27458966.602080006
281,21397457.689920004
1113,9592981.981486043
1212,0.0
1262,38793527.27170616
1286,37162154.2729458
1312,0.0
1530,1631372.9987603577
2,5, 1, 5, 0,11, 0.00,60.00,Thursday
12,58449406.273500584
60,27458966.602080006
281,21397457.689920004
1113,9592981.981486043
1212,0.0
1262,27947026.256265722
1286,26315624.674144074
1312,0.0
1530,1631401.58212165
2,5, 1, 5, 0,12, 0.00,60.00,Thursday
12,58449406.273500584
60,27458966.602080006
281,21397457.689920004
1113,9592981.981486043
1212,0.0
1262,25183347.671046965
1286,21992467.673381012
1312,0.0
1530,3190879.997665951
2,5, 1, 5, 0,13, 0.00,60.00,Thursday
12,56071910.97462057
60,27458966.602080006
281,19019962.39104
1113,9592981.981486043
1212,0.0
1262,24160749.17847658
1286,22529399.321388442
1312,0.0
1530,1631349.85708814
2,5, 1, 5, 0,14, 0.00,60.00,Thursday
12,58454723.47947988
60,27458966.602080006
281,21397457.689920004
1113,9592981.981486043
1212,5317.2059792896
1262,16032360.36490262
1286,14400899.104931153
1312,0.0
1530,1631461.2599714673
2,5, 1, 5, 0,15, 0.00,60.00,Thursday
12,58449406.273500584
60,27458966.602080006
281,21397457.689920004
1113,9592981.981486043
1212,0.0
1262,11764152.985420585
1286,10132798.198867697
1312,0.0
1530,1631354.7865528865
2,5, 1, 5, 0,16, 0.00,60.00,Thursday
12,58489687.34744353
60,27458966.602080006
281,21397457.689920004
1113,9592981.981486043
1212,40281.073942944095
1262,11084359.767201487
1286,9453043.305242067
1312,0.0
1530,1631316.4619594205
2,5, 1, 5, 0,17, 0.00,60.00,Thursday
12,63988670.10446105
60,27458966.602080006
281,21397457.689920004
1113,9592981.981486043
1212,12063.830960464042
1262,16067182.23170156
1286,12876404.853975113
1312,0.0
1530,3190777.377726448
2,5, 1, 5, 0,18, 0.00,60.00,Thursday
12,45026239.92150058
60,15254981.445600001
281,11887476.4944
1113,9592981.981486043
1212,0.0
1262,34898134.8252289
1286,33266971.26705064
1312,0.0
1530,1631163.5581782628
2,5, 1, 5, 0,19, 0.00,60.00,Thursday
12,36546752.044380575
60,9152988.86736
281,9509981.19552
1113,9592981.981486043
1212,0.0
1262,43514089.82284316
1286,43442089.82284316
1312,0.0
1530,72000.0
2,5, 1, 5, 0,20, 0.00,60.00,Thursday
12,36546752.044380575
60,9152988.86736
281,9509981.19552
1113,9592981.981486043
1212,0.0
1262,49481901.65578893
1286,47850787.17404478
1312,0.0
1530,1631114.4817441436
2,5, 1, 5, 0,21, 0.00,60.00,Thursday
12,33495755.755260583
60,6101992.578240002
281,9509981.19552
1113,9592981.981486043
1212,0.0
1262,54666128.32489595
1286,53034930.43104294
1312,0.0
1530,1631197.893853011
2,5, 1, 5, 0,22, 0.00,60.00,Thursday
12,33495755.755260583
60,6101992.578240002
281,9509981.19552
1113,9592981.981486043
1212,0.0
1262,58328947.465498164
1286,56697922.84117922
1312,0.0
1530,1631024.6243189326
2,5, 1, 5, 0,23, 0.00,60.00,Thursday
12,20851777.484654542
60,3050996.289120001
281,9509981.19552
1113,0.0
1212,0.0
1262,72000.0
1286,0.0
1312,0.0
1530,72000.0
2,5, 1, 5, 0,24, 0.00,60.00,Thursday
12,19326279.34009454
60,1525498.1445600004
281,9509981.19552
1113,0.0
1212,0.0
1262,1631013.7583372109
1286,0.0
1312,0.0
1530,1631013.7583372109
2,6, 1, 6, 0, 1, 0.00,60.00,Friday
12,19326279.34009454
60,1525498.1445600004
281,9509981.19552
1113,0.0
1212,0.0
1262,1631006.602191227
1286,0.0
1312,0.0
1530,1631006.602191227
2,6, 1, 6, 0, 2, 0.00,60.00,Friday
12,19326279.34009454
60,1525498.1445600004
281,9509981.19552
1113,0.0
1212,0.0
1262,72000.0
1286,0.0
1312,0.0
1530,72000.0
2,6, 1, 6, 0, 3, 0.00,60.00,Friday
12,19326279.34009454
60,1525498.1445600004
281,9509981.19552
1113,0.0
1212,0.0
1262,1631103.8939402096
1286,0.0
1312,0.0
1530,1631103.8939402096
2,6, 1, 6, 0, 4, 0.00,60.00,Friday
12,22249679.39814167
60,1525498.1445600004
281,9509981.19552
1113,2920202.638756879
1212,3197.4192902516106
1262,2406328.026185064
1286,775215.4292638951
1312,0.0
1530,1631112.5969211692
2,6, 1, 6, 0, 5, 0.00,60.00,Friday
12,23567147.682913944
60,1525498.1445600004
281,9509981.19552
1113,4240868.342819403
1212,0.0
1262,1917196.6562612453
1286,1845196.6562612453
1312,0.0
1530,72000.0
2,6, 1, 6, 0, 6, 0.00,60.00,Friday
12,26211132.441169616
60,3050996.289120001
281,9509981.19552
1113,5359354.956515075
1212,0.0
1262,5927927.554949268
1286,4296796.723847856
1312,0.0
1530,1631130.831101412
2,6, 1, 6, 0, 7, 0.00,60.00,Friday
12,30444759.466140576
60,3050996.289120001
281,9509981.19552
1113,9592981.981486043
1212,0.0
1262,86571825.95795041
1286,84940780.1101619
1312,0.0
1530,1631045.8477885034
2,6, 1, 6, 0, 8, 0.00,60.00,Friday
12,31019552.04438058
60,9152988.86736
281,9509981.19552
1113,9592981.981486043
1212,0.0
1262,101043287.05272572
1286,99412091.35469255
1312,0.0
1530,1631195.698033175
2,6, 1, 6, 0, 9, 0.00,60.00,Friday
12,58449406.273500584
60,27458966.602080006
281,21397457.689920004
1113,9592981.981486043
1212,0.0
1262,59816667.84425475
1286,58185301.702432856
1312,0.0
1530,1631366.1418218978
2,6, 1, 6, 0,10, 0.00,60.00,Friday
12,58449406.273500584
60,27458966.602080006
281,21397457.689920004
1113,9592981.981486043
1212,0.0
1262,44350390.272758745
1286,42719014.91499198
1312,0.0
1530,1631375.3577667642
2,6, 1, 6, 0,11, 0.00,60.00,Friday
12,58449406.273500584
60,27458966.602080006