Program Version,EnergyPlus, Version 25.1.0-68a4a7c774, YMD=2025.10.28 16:52
1,5,Environment Title[],Latitude[deg],Longitude[deg],Time Zone[],Elevation[m]
2,8,Day of Simulation[],Month[],Day of Month[],DST Indicator[1=yes 0=no],Hour[],StartMinute[],EndMinute[],DayType
3,5,Cumulative Day of Simulation[],Month[],Day of Month[],DST Indicator[1=yes 0=no],DayType  ! When Daily Meters Requested
4,2,Cumulative Days of Simulation[],Month[]  ! When Monthly Meters Requested
5,1,Cumulative Days of Simulation[] ! When Run Period Meters Requested
6,1,Calendar Year of Simulation[] ! When Annual Meters Requested
12,1,Electricity:Facility [J] !Hourly
1113,1,Fans:Electricity [J] !Hourly
1212,1,Cooling:Electricity [J] !Hourly
1312,1,Heating:Electricity [J] !Hourly
60,1,InteriorLights:Electricity [J] !Hourly
281,1,InteriorEquipment:Electricity [J] !Hourly
1262,1,NaturalGas:Facility [J] !Hourly
1286,1,Heating:NaturalGas [J] !Hourly
1530,1,Water Heater:WaterSystems:NaturalGas [J] !Hourly
14,9,Electricity:Facility [J] !Monthly [Value,Min,Day,Hour,Minute,Max,Day,Hour,Minute]
1264,9,NaturalGas:Facility [J] !Monthly [Value,Min,Day,Hour,Minute,Max,Day,Hour,Minute]
1360,9,Water:Facility [m3] !Monthly [Value,Min,Day,Hour,Minute,Max,Day,Hour,Minute]
462,9,EnergyTransfer:Facility [J] !Monthly [Value,Min,Day,Hour,Minute,Max,Day,Hour,Minute]
955,9,ElectricityPurchased:Facility [J] !Monthly [Value,Min,Day,Hour,Minute,Max,Day,Hour,Minute]
1004,9,ElectricitySurplusSold:Facility [J] !Monthly [Value,Min,Day,Hour,Minute,Max,Day,Hour,Minute]
1053,9,ElectricityNet:Facility [J] !Monthly [Value,Min,Day,Hour,Minute,Max,Day,Hour,Minute]
2287,9,Carbon Equivalent:Facility [kg] !Monthly [Value,Min,Day,Hour,Minute,Max,Day,Hour,Minute]
906,9,PlantLoopHeatingDemand:Facility [J] !Monthly [Value,Min,Day,Hour,Minute,Max,Day,Hour,Minute]
1409,9,MainsWater:Facility [m3] !Monthly [Value,Min,Day,Hour,Minute,Max,Day,Hour,Minute]
1965,9,WaterEnvironmentalFactors:Facility [L] !Monthly [Value,Min,Day,Hour,Minute,Max,Day,Hour,Minute]
1615,9,Source:Facility [J] !Monthly [Value,Min,Day,Hour,Minute,Max,Day,Hour,Minute]
1765,9,SO2:Facility [kg] !Monthly [Value,Min,Day,Hour,Minute,Max,Day,Hour,Minute]
1715,9,NOx:Facility [kg] !Monthly [Value,Min,Day,Hour,Minute,Max,Day,Hour,Minute]
1740,9,N2O:Facility [kg] !Monthly [Value,Min,Day,Hour,Minute,Max,Day,Hour,Minute]
1790,9,PM:Facility [kg] !Monthly [Value,Min,Day,Hour,Minute,Max,Day,Hour,Minute]
1840,9,PM2.5:Facility [kg] !Monthly [Value,Min,Day,Hour,Minute,Max,Day,Hour,Minute]
1815,9,PM10:Facility [kg] !Monthly [Value,Min,Day,Hour,Minute,Max,Day,Hour,Minute]
1665,9,CO:Facility [kg] !Monthly [Value,Min,Day,Hour,Minute,Max,Day,Hour,Minute]
1640,9,CO2:Facility [kg] !Monthly [Value,Min,Day,Hour,Minute,Max,Day,Hour,Minute]
1690,9,CH4:Facility [kg] !Monthly [Value,Min,Day,Hour,Minute,Max,Day,Hour,Minute]
1865,9,NH3:Facility [kg] !Monthly [Value,Min,Day,Hour,Minute,Max,Day,Hour,Minute]
1890,9,NMVOC:Facility [kg] !Monthly [Value,Min,Day,Hour,Minute,Max,Day,Hour,Minute]
1915,9,Hg:Facility [kg] !Monthly [Value,Min,Day,Hour,Minute,Max,Day,Hour,Minute]
1940,9,Pb:Facility [kg] !Monthly [Value,Min,Day,Hour,Minute,Max,Day,Hour,Minute]
1990,9,Nuclear High:Facility [kg] !Monthly [Value,Min,Day,Hour,Minute,Max,Day,Hour,Minute]
2015,9,Nuclear Low:Facility [m3] !Monthly [Value,Min,Day,Hour,Minute,Max,Day,Hour,Minute]
End of Data Dictionary
1,ANNUAL,  41.98, -87.92,  -6.00, 201.00
2,1, 1, 1, 0, 1, 0.00,60.00,Holiday
12,19573277.507768832
60,495004.82616000006
281,5940057.91392
1113,4847414.767674292
1212,0.0
1262,13393572.682092989
1286,13321572.682092989
1312,0.0
1530,72000.0
2,1, 1, 1, 0, 2, 0.00,60.00,Holiday
12,19274518.32000744
60,495004.82616000006
281,5940057.91392
1113,4548655.579912898
1212,0.0
1262,16876798.918478113
1286,15245714.805353628
1312,0.0
1530,1631084.1131244856
2,1, 1, 1, 0, 3, 0.00,60.00,Holiday
12,20411682.21498566
60,495004.82616000006
281,5940057.91392
1113,5685819.474891122
1212,0.0
1262,14948757.61389902
1286,14876757.61389902
1312,0.0
1530,72000.0
2,1, 1, 1, 0, 4, 0.00,60.00,Holiday
12,19274518.32000744
60,495004.82616000006
281,5940057.91392
1113,4548655.579912898
1212,0.0
1262,15118837.308646627
1286,13487739.424238952
1312,0.0
1530,1631097.8844076744
2,1, 1, 1, 0, 5, 0.00,60.00,Holiday
12,20411682.21498566
60,495004.82616000006
281,5940057.91392
1113,5685819.474891122
1212,0.0
1262,17061647.092683166
1286,15430539.790812295
1312,0.0
1530,1631107.3018708727
2,1, 1, 1, 0, 6, 0.00,60.00,Holiday
12,19274518.32000744
60,495004.82616000006
281,5940057.91392
1113,4548655.579912898
1212,0.0
1262,13976403.532435423
1286,13904403.532435423
1312,0.0
1530,72000.0
2,1, 1, 1, 0, 7, 0.00,60.00,Holiday
12,20411682.21498566
60,495004.82616000006
281,5940057.91392
1113,5685819.474891122
1212,0.0
1262,17731325.611640282
1286,16100294.299519168
1312,0.0
1530,1631031.3121211128
2,1, 1, 1, 0, 8, 0.00,60.00,Holiday
12,13747318.320007438
60,495004.82616000006
281,5940057.91392
1113,4548655.579912898
1212,0.0
1262,15422361.484859241
1286,13791251.206965948
1312,0.0
1530,1631110.2778932923
2,1, 1, 1, 0, 9, 0.00,60.00,Holiday
12,11683919.333729923
60,495004.82616000006
281,5940057.91392
1113,5248856.593635382
1212,0.0
1262,13424376.216987608
1286,13352376.216987608
1312,0.0
1530,72000.0
2,1, 1, 1, 0,10, 0.00,60.00,Holiday
12,8876386.521458693
60,495004.82616000006
281,5940057.91392
1113,2440022.6149215316
1212,1301.166442621424
1262,7479868.806317114
1286,5848750.234391927
1312,0.0
1530,1631118.5719251877
2,1, 1, 1, 0,11, 0.00,60.00,Holiday
12,9485091.008746454
60,495004.82616000006
281,5940057.91392
1113,3050028.2686519143
1212,0.0
1262,8048872.547669142
1286,6417770.618439207
1312,0.0
1530,1631101.9292299345
2,1, 1, 1, 0,12, 0.00,60.00,Holiday
12,9098956.610718217
60,495004.82616000006
281,5940057.91392
1113,2663893.870623676
1212,0.0
1262,4379911.512954325
1286,4307911.512954325
1312,0.0
1530,72000.0
2,1, 1, 1, 0,13, 0.00,60.00,Holiday
12,9764930.078374134
60,495004.82616000006
281,5940057.91392
1113,3329867.338279595
1212,0.0
1262,5949079.994678337
1286,4317959.182622188
1312,0.0
1530,1631120.8120561494
2,1, 1, 1, 0,14, 0.00,60.00,Holiday
12,9098956.610718217
60,495004.82616000006
281,5940057.91392
1113,2663893.870623676
1212,0.0
1262,5007794.952025824
1286,3376649.429583535
1312,0.0
1530,1631145.5224422896
2,1, 1, 1, 0,15, 0.00,60.00,Holiday
12,9764930.078374134
60,495004.82616000006
281,5940057.91392
1113,3329867.338279595
1212,0.0
1262,4229753.109640984
1286,4157753.109640984
1312,0.0
1530,72000.0
2,1, 1, 1, 0,16, 0.00,60.00,Holiday
12,9098956.610718217
60,495004.82616000006
281,5940057.91392
1113,2663893.870623676
1212,0.0
1262,4699038.817214697
1286,3067943.362894501
1312,0.0
1530,1631095.4543201951
2,1, 1, 1, 0,17, 0.00,60.00,Holiday
12,15292130.078374136
60,495004.82616000006
281,5940057.91392
1113,3329867.338279595
1212,0.0
1262,6412068.1591877965
1286,4780975.621479804
1312,0.0
1530,1631092.537707993
2,1, 1, 1, 0,18, 0.00,60.00,Holiday
12,17753892.345098
60,495004.82616000006
281,5940057.91392
1113,3028029.60500346
1212,0.0
1262,4214065.946621752
1286,4142065.946621752
1312,0.0
1530,72000.0
2,1, 1, 1, 0,19, 0.00,60.00,Holiday
12,18929655.840885617
60,495004.82616000006
281,5940057.91392
1113,4203793.100791076
1212,0.0
1262,7005749.94881884
1286,5374645.1791273365
1312,0.0
1530,1631104.7696915038
2,1, 1, 1, 0,20, 0.00,60.00,Holiday
12,17990580.57244486
60,495004.82616000006
281,5940057.91392
1113,3264717.8323503193
1212,0.0
1262,6277708.347859719
1286,4646598.892253534
1312,0.0
1530,1631109.4556061854
2,1, 1, 1, 0,21, 0.00,60.00,Holiday
12,19038896.561199553
60,495004.82616000006
281,5940057.91392
1113,4313033.821105011
1212,0.0
1262,6066373.2506589815
1286,5994373.2506589815
1312,0.0
1530,72000.0
2,1, 1, 1, 0,22, 0.00,60.00,Holiday
12,18154441.652915765
60,495004.82616000006
281,5940057.91392
1113,3428578.912821222
1212,0.0
1262,6316840.411331962
1286,4685705.508832076
1312,0.0
1530,1631134.9024998862
2,1, 1, 1, 0,23, 0.00,60.00,Holiday
12,19148137.281513486
60,495004.82616000006
281,5940057.91392
1113,4422274.541418945
1212,0.0
1262,7128994.920913458
1286,5497981.689420706
1312,0.0
1530,1631013.2314927506
2,1, 1, 1, 0,24, 0.00,60.00,Holiday
12,18263682.373229697
60,495004.82616000006
281,5940057.91392
1113,3537819.633135157
1212,0.0
1262,5562849.81314251
1286,5490849.81314251
1312,0.0
1530,72000.0
2,2, 1, 2, 0, 1, 0.00,60.00,Monday
12,21128156.586153485
60,495004.82616000006
281,7920077.218560001
1113,4422274.541418945
1212,0.0
1262,7776366.295624544
1286,6145251.1755537195
1312,0.0
1530,1631115.120070824
2,2, 1, 2, 0, 2, 0.00,60.00,Monday
12,20243701.677869696
60,495004.82616000006
281,7920077.218560001
1113,3537819.633135157
1212,0.0
1262,7573741.8708000565
1286,5942626.535326969
1312,0.0
1530,1631115.3354730874
2,2, 1, 2, 0, 3, 0.00,60.00,Monday
12,21128156.586153485
60,495004.82616000006
281,7920077.218560001
1113,4422274.541418945
1212,0.0
1262,6544678.510745076
1286,6472678.510745076
1312,0.0
1530,72000.0
2,2, 1, 2, 0, 4, 0.00,60.00,Monday
12,20243701.677869696
60,495004.82616000006
281,7920077.218560001
1113,3537819.633135157
1212,0.0
1262,7593778.788323054
1286,5962693.523678692
1312,0.0
1530,1631085.264644362
2,2, 1, 2, 0, 5, 0.00,60.00,Monday
12,21128156.586153485
60,495004.82616000006
281,7920077.218560001
1113,4422274.541418946
1212,0.0
1262,7338613.05076135
1286,5707522.8490194725
1312,0.0
1530,1631090.2017418782
2,2, 1, 2, 0, 6, 0.00,60.00,Monday
12,20738706.5040297
60,990009.6523200001
281,7920077.218560001
1113,3537819.633135157
1212,0.0
1262,4857357.932592414
1286,4785357.932592414
1312,0.0
1530,72000.0
2,2, 1, 2, 0, 7, 0.00,60.00,Monday
12,24023870.240763884
60,990009.6523200001
281,7920077.218560001
1113,6822983.369869347
1212,0.0
1262,104198600.27303925
1286,102567577.85271788
1312,0.0
1530,1631022.420321382
2,2, 1, 2, 0, 8, 0.00,60.00,Monday
12,20476689.545403887
60,2970028.95696
281,7920077.218560001
1113,6822983.369869347
1212,0.0
1262,96370706.74683891
1286,94739593.56582852
1312,0.0
1530,1631113.1810104048
2,2, 1, 2, 0, 9, 0.00,60.00,Monday
12,33553243.982523885
60,8910086.87088
281,17820173.74176
1113,6822983.369869347
1212,0.0
1262,65762608.18887853
1286,64131417.727933206
1312,0.0
1530,1631190.4609453194
2,2, 1, 2, 0,10, 0.00,60.00,Monday
12,33553243.982523885
60,8910086.87088
281,17820173.74176
1113,6822983.369869347
1212,0.0
1262,54274447.687481634
1286,52643128.6880074
1312,0.0
1530,1631318.999474229
2,2, 1, 2, 0,11, 0.00,60.00,Monday
12,33553243.982523885
60,8910086.87088
281,17820173.74176
1113,6822983.369869347
1212,0.0
1262,46548490.521936625
1286,44917148.93018121
1312,0.0
1530,1631341.5917554097
2,2, 1, 2, 0,12, 0.00,60.00,Monday
12,33553243.982523885
60,8910086.87088
281,17820173.74176
1113,6822983.369869347
1212,0.0
1262,40646543.72069703
1286,39015080.077369116
1312,0.0
1530,1631463.6433279144
2,2, 1, 2, 0,13, 0.00,60.00,Monday
12,31573224.67788389
60,8910086.87088
281,15840154.437120002
1113,6822983.369869347
1212,0.0
1262,43381059.181765094
1286,40190114.11154664
1312,0.0
1530,3190945.0702184495
2,2, 1, 2, 0,14, 0.00,60.00,Monday
12,33553243.982523885
60,8910086.87088
281,17820173.74176
1113,6822983.369869347
1212,0.0
1262,36392504.20676934
1286,34761188.00158715
1312,0.0
1530,1631316.2051821884
2,2, 1, 2, 0,15, 0.00,60.00,Monday
12,33553243.982523885
60,8910086.87088
281,17820173.74176
1113,6822983.369869347
1212,0.0
1262,36889477.18035358
1286,35258312.421789035
1312,0.0
1530,1631164.7585645495
2,2, 1, 2, 0,16, 0.00,60.00,Monday
12,33553243.982523885
60,8910086.87088
281,17820173.74176
1113,6822983.369869347
1212,0.0
1262,35472466.04007785
1286,33841156.17721672
1312,0.0
1530,1631309.8628611278
2,2, 1, 2, 0,17, 0.00,60.00,Monday
12,39080443.98252389
60,8910086.87088
281,17820173.74176
1113,6822983.369869347
1212,0.0
1262,34376128.68174295
1286,32744732.075514436
1312,0.0
1530,1631396.606228518
2,2, 1, 2, 0,18, 0.00,60.00,Monday
12,29963928.154683888
60,4950048.261600001
281,9900096.523200002
1113,6822983.369869347
1212,0.0
1262,48126637.18926228
1286,46495458.90680919
1312,0.0
1530,1631178.2824530925
2,2, 1, 2, 0,19, 0.00,60.00,Monday
12,26003889.545403887
60,2970028.95696
281,7920077.218560001
1113,6822983.369869347
1212,0.0
1262,52302549.63459393
1286,50671332.59876925
1312,0.0
1530,1631217.035824676
2,2, 1, 2, 0,20, 0.00,60.00,Monday
12,26003889.545403887
60,2970028.95696
281,7920077.218560001
1113,6822983.369869347
1212,0.0
1262,50991176.85358993
1286,49360029.31077605
1312,0.0
1530,1631147.5428138815
2,2, 1, 2, 0,21, 0.00,60.00,Monday
12,25013879.89308389
60,1980019.3046400002
281,7920077.218560001
1113,6822983.369869347
1212,0.0
1262,50400379.57039496
1286,48769272.30468489
1312,0.0
1530,1631107.2657100752
2,2, 1, 2, 0,22, 0.00,60.00,Monday
12,25013879.89308389
60,1980019.3046400002
281,7920077.218560001
1113,6822983.369869347
1212,0.0
1262,47520354.42123185
1286,47448354.42123185
1312,0.0
1530,72000.0
2,2, 1, 2, 0,23, 0.00,60.00,Monday
12,17200886.87089454
60,990009.6523200001
281,7920077.218560001
1113,0.0
1212,0.0
1262,1631111.4283857916
1286,0.0
1312,0.0
1530,1631111.4283857916
2,2, 1, 2, 0,24, 0.00,60.00,Monday
12,16705882.04473454
60,495004.82616000006
281,7920077.218560001
1113,0.0
1212,0.0
1262,1631086.8075863745
1286,0.0
1312,0.0
1530,1631086.8075863745
2,3, 1, 3, 0, 1, 0.00,60.00,Tuesday
12,16705882.04473454
60,495004.82616000006
281,7920077.218560001
1113,0.0
1212,0.0
1262,72000.0
1286,0.0
1312,0.0
1530,72000.0
2,3, 1, 3, 0, 2, 0.00,60.00,Tuesday
12,16705882.04473454
60,495004.82616000006
281,7920077.218560001
1113,0.0
1212,0.0
1262,1631079.4307716822
1286,0.0
1312,0.0
1530,1631079.4307716822
2,3, 1, 3, 0, 3, 0.00,60.00,Tuesday
12,16705882.04473454
60,495004.82616000006
281,7920077.218560001
1113,0.0
1212,0.0
1262,1631071.9574790597
1286,0.0
1312,0.0
1530,1631071.9574790597
2,3, 1, 3, 0, 4, 0.00,60.00,Tuesday
12,16705882.04473454
60,495004.82616000006
281,7920077.218560001
1113,0.0
1212,0.0
1262,72000.0
1286,0.0
1312,0.0
1530,72000.0
2,3, 1, 3, 0, 5, 0.00,60.00,Tuesday
12,16705882.04473454
60,495004.82616000006
281,7920077.218560001
1113,0.0
1212,0.0
1262,1631064.4365015873
1286,0.0
1312,0.0
1530,1631064.4365015873
2,3, 1, 3, 0, 6, 0.00,60.00,Tuesday
12,17200886.87089454
60,990009.6523200001
281,7920077.218560001
1113,0.0
1212,0.0
1262,1631106.6749623937
1286,0.0
1312,0.0
1530,1631106.6749623937
2,3, 1, 3, 0, 7, 0.00,60.00,Tuesday
12,24023870.240763884
60,990009.6523200001
281,7920077.218560001
1113,6822983.369869347
1212,0.0
1262,70159588.98058318
1286,70087588.98058318
1312,0.0
1530,72000.0
2,3, 1, 3, 0, 8, 0.00,60.00,Tuesday
12,20476689.545403887
60,2970028.95696
281,7920077.218560001
1113,6822983.369869347
1212,0.0
1262,77933673.39651947
1286,76302563.79911004
1312,0.0
1530,1631109.597409428
2,3, 1, 3, 0, 9, 0.00,60.00,Tuesday
12,33553243.982523885
60,8910086.87088
281,17820173.74176
1113,6822983.369869347
1212,0.0
1262,53666864.68916251
1286,52035592.94326624
1312,0.0
1530,1631271.7458962607
2,3, 1, 3, 0,10, 0.00,60.00,Tuesday
12,33553243.982523885
60,8910086.87088
281,17820173.74176
1113,6822983.369869347
1212,0.0
1262,47044478.297142856
1286,45413107.120356105
1312,0.0
1530,1631371.1767867466
2,3, 1, 3, 0,11, 0.00,60.00,Tuesday
12,33553243.982523885
60,8910086.87088
281,17820173.74176
1113,6822983.369869347
1212,0.0
1262,43727305.587535545
1286,40536805.13658913
1312,0.0
1530,3190500.4509464186
2,3, 1, 3, 0,12, 0.00,60.00,Tuesday
12,33553243.982523885
60,8910086.87088
281,17820173.74176
1113,6822983.369869347
1212,0.0
1262,38567080.095368765
1286,36935804.55076483
1312,0.0
1530,1631275.544603943
2,3, 1, 3, 0,13, 0.00,60.00,Tuesday
12,31573224.67788389
60,8910086.87088
281,15840154.437120002
1113,6822983.369869347
1212,0.0
1262,40729489.77392067
1286,39098036.419311024
1312,0.0
1530,1631453.3546096426
2,3, 1, 3, 0,14, 0.00,60.00,Tuesday
12,33553243.982523885
60,8910086.87088
281,17820173.74176
1113,6822983.369869347
1212,0.0
1262,34116267.56458288
1286,32484956.35206919
1312,0.0
1530,1631311.2125136848
2,3, 1, 3, 0,15, 0.00,60.00,Tuesday
12,33553243.982523885
60,8910086.87088
281,17820173.74176
1113,6822983.369869347
1212,0.0
1262,33382532.389827646
1286,31751261.73757001
1312,0.0
1530,1631270.6522576346
2,3, 1, 3, 0,16, 0.00,60.00,Tuesday
12,33553243.982523885
60,8910086.87088
281,17820173.74176
1113,6822983.369869347
1212,0.0
1262,33418189.237583783
1286,31786885.10458782
1312,0.0
1530,1631304.1329959603
2,3, 1, 3, 0,17, 0.00,60.00,Tuesday
12,39080443.98252389
60,8910086.87088
281,17820173.74176
1113,6822983.369869347
1212,0.0
1262,36021664.144270994
1286,32830816.952267557
1312,0.0
1530,3190847.1920034336
2,3, 1, 3, 0,18, 0.00,60.00,Tuesday
12,29963928.154683888
60,4950048.261600001
281,9900096.523200002
1113,6822983.369869347
1212,0.0
1262,47922691.12411428
1286,46291443.33256273
1312,0.0
1530,1631247.7915515525
2,3, 1, 3, 0,19, 0.00,60.00,Tuesday
12,26003889.545403887
60,2970028.95696
281,7920077.218560001
1113,6822983.369869347
1212,0.0
1262,51898584.980526626
1286,51826584.980526626
1312,0.0
1530,72000.0
2,3, 1, 3, 0,20, 0.00,60.00,Tuesday
12,26003889.545403887
60,2970028.95696
281,7920077.218560001
1113,6822983.369869347
1212,0.0
1262,54494397.650969885
1286,52863204.40771326
1312,0.0
1530,1631193.2432566327
2,3, 1, 3, 0,21, 0.00,60.00,Tuesday
12,25013879.89308389
60,1980019.3046400002
281,7920077.218560001
1113,6822983.369869347
1212,0.0
1262,55652007.625917435
1286,54020870.308917426
1312,0.0
1530,1631137.3170000068
2,3, 1, 3, 0,22, 0.00,60.00,Tuesday
12,25013879.89308389
60,1980019.3046400002
281,7920077.218560001
1113,6822983.369869347
1212,0.0
1262,56213510.64965186
1286,54582411.36482727
1312,0.0
1530,1631099.284824589
2,3, 1, 3, 0,23, 0.00,60.00,Tuesday
12,17200886.87089454
60,990009.6523200001
281,7920077.218560001
1113,0.0
1212,0.0
1262,72000.0
1286,0.0
1312,0.0
1530,72000.0
2,3, 1, 3, 0,24, 0.00,60.00,Tuesday
12,16705882.04473454
60,495004.82616000006
281,7920077.218560001
1113,0.0
1212,0.0
1262,1631085.8715163348
1286,0.0
1312,0.0
1530,1631085.8715163348
2,4, 1, 4, 0, 1, 0.00,60.00,Wednesday
12,16705882.04473454
60,495004.82616000006
281,7920077.218560001
1113,0.0
1212,0.0
1262,1631078.5972100226
1286,0.0
1312,0.0
1530,1631078.5972100226
2,4, 1, 4, 0, 2, 0.00,60.00,Wednesday
12,16705882.04473454
60,495004.82616000006
281,7920077.218560001
1113,0.0
1212,0.0
1262,72000.0
1286,0.0
1312,0.0
1530,72000.0
2,4, 1, 4, 0, 3, 0.00,60.00,Wednesday
12,16705882.04473454
60,495004.82616000006
281,7920077.218560001
1113,0.0
1212,0.0
1262,1631071.3163633305
1286,0.0
1312,0.0
1530,1631071.3163633305
2,4, 1, 4, 0, 4, 0.00,60.00,Wednesday
12,16705882.04473454
60,495004.82616000006
281,7920077.218560001
1113,0.0
1212,0.0
1262,1631063.978098636
1286,0.0
1312,0.0
1530,1631063.978098636
2,4, 1, 4, 0, 5, 0.00,60.00,Wednesday
12,16705882.04473454
60,495004.82616000006
281,7920077.218560001
1113,0.0
1212,0.0
1262,72000.0
1286,0.0
1312,0.0
1530,72000.0
2,4, 1, 4, 0, 6, 0.00,60.00,Wednesday
12,17200886.87089454
60,990009.6523200001
281,7920077.218560001
1113,0.0
1212,0.0
1262,1631078.7585437144
1286,0.0
1312,0.0
1530,1631078.7585437144
2,4, 1, 4, 0, 7, 0.00,60.00,Wednesday
12,24023870.240763884
60,990009.6523200001
281,7920077.218560001
1113,6822983.369869347
1212,0.0
1262,75533955.95406225
1286,73902840.21081358
1312,0.0
1530,1631115.7432486713
2,4, 1, 4, 0, 8, 0.00,60.00,Wednesday
12,20476689.545403887
60,2970028.95696
281,7920077.218560001
1113,6822983.369869347
1212,0.0
1262,79067713.30811833
1286,77436589.1354326
1312,0.0
1530,1631124.1726857193
2,4, 1, 4, 0, 9, 0.00,60.00,Wednesday
12,33553243.982523885
60,8910086.87088
281,17820173.74176
1113,6822983.369869347
1212,0.0
1262,52640797.737159975
1286,51009554.6195901
1312,0.0
1530,1631243.117569875
2,4, 1, 4, 0,10, 0.00,60.00,Wednesday
12,33553243.982523885
60,8910086.87088
281,17820173.74176
1113,6822983.369869347
1212,0.0
1262,44533737.38904914
1286,42902363.06190613
1312,0.0
1530,1631374.327143011
2,4, 1, 4, 0,11, 0.00,60.00,Wednesday
12,33553243.982523885
60,8910086.87088
281,17820173.74176
1113,6822983.369869347
1212,0.0
1262,39684969.468402274
1286,38053568.56058716
1312,0.0
1530,1631400.9078151148
2,4, 1, 4, 0,12, 0.00,60.00,Wednesday
12,33553243.982523885
60,8910086.87088
281,17820173.74176
1113,6822983.369869347
1212,0.0
1262,36202843.22360731
1286,34571523.80710113
1312,0.0
1530,1631319.4165061808
2,4, 1, 4, 0,13, 0.00,60.00,Wednesday
12,31573224.67788389
60,8910086.87088
281,15840154.437120002
1113,6822983.369869347
1212,0.0
1262,39762049.42333032
1286,36571262.22067865
1312,0.0
1530,3190787.202651675
2,4, 1, 4, 0,14, 0.00,60.00,Wednesday
12,33553243.982523885
60,8910086.87088
281,17820173.74176
1113,6822983.369869347
1212,0.0
1262,31843979.73654192
1286,30212545.756697714
1312,0.0
1530,1631433.9798442088
2,4, 1, 4, 0,15, 0.00,60.00,Wednesday
12,33553243.982523885
60,8910086.87088
281,17820173.74176
1113,6822983.369869347
1212,0.0
1262,31548498.678895064
1286,29917267.951402195
1312,0.0
1530,1631230.7274928656
2,4, 1, 4, 0,16, 0.00,60.00,Wednesday
12,33553243.982523885
60,8910086.87088
281,17820173.74176
1113,6822983.369869347
1212,0.0
1262,32216622.20306879
1286,30585337.640781146
1312,0.0
1530,1631284.5622876459
2,4, 1, 4, 0,17, 0.00,60.00,Wednesday
12,39080443.98252389
60,8910086.87088
281,17820173.74176
1113,6822983.369869347
1212,0.0
1262,34987810.60755486
1286,33356425.967061915
1312,0.0
1530,1631384.6404929527
2,4, 1, 4, 0,18, 0.00,60.00,Wednesday
12,29963928.154683888
60,4950048.261600001
281,9900096.523200002
1113,6822983.369869347
1212,0.0
1262,51112449.61366966
1286,49481206.791740924
1312,0.0
1530,1631242.821928738
2,4, 1, 4, 0,19, 0.00,60.00,Wednesday
12,26003889.545403887
60,2970028.95696
281,7920077.218560001
1113,6822983.369869347
1212,0.0
1262,58906855.44914177
1286,57275751.10569385
1312,0.0
1530,1631104.343447918
2,4, 1, 4, 0,20, 0.00,60.00,Wednesday
12,26003889.545403887
60,2970028.95696
281,7920077.218560001
1113,6822983.369869347
1212,0.0
1262,60877984.65958145
1286,59246811.62722428
1312,0.0
1530,1631173.032357172
2,4, 1, 4, 0,21, 0.00,60.00,Wednesday
12,25013879.89308389
60,1980019.3046400002
281,7920077.218560001
1113,6822983.369869347
1212,0.0
1262,61403955.318064235
1286,59772816.1981624
1312,0.0
1530,1631139.1199018355
2,4, 1, 4, 0,22, 0.00,60.00,Wednesday
12,25013879.89308389
60,1980019.3046400002
281,7920077.218560001
1113,6822983.369869347
1212,0.0
1262,60586471.53811362
1286,60514471.53811362
1312,0.0
1530,72000.0
2,4, 1, 4, 0,23, 0.00,60.00,Wednesday
12,17200886.87089454
60,990009.6523200001
281,7920077.218560001
1113,0.0
1212,0.0
1262,1631107.4408462183
1286,0.0
1312,0.0
1530,1631107.4408462183
2,4, 1, 4, 0,24, 0.00,60.00,Wednesday
12,16705882.04473454
60,495004.82616000006
281,7920077.218560001
1113,0.0
1212,0.0
1262,1631091.6353096215
1286,0.0
1312,0.0
1530,1631091.6353096215
2,5, 1, 5, 0, 1, 0.00,60.00,Thursday
12,16705882.04473454
60,495004.82616000006
281,7920077.218560001
1113,0.0
1212,0.0
1262,72000.0
1286,0.0
1312,0.0
1530,72000.0
2,5, 1, 5, 0, 2, 0.00,60.00,Thursday
12,16705882.04473454
60,495004.82616000006
281,7920077.218560001
1113,0.0
1212,0.0
1262,1631084.6809263788
1286,0.0
1312,0.0
1530,1631084.6809263788
2,5, 1, 5, 0, 3, 0.00,60.00,Thursday
12,16705882.04473454
60,495004.82616000006
281,7920077.218560001
1113,0.0
1212,0.0
1262,1631077.623372245
1286,0.0
1312,0.0
1530,1631077.623372245
2,5, 1, 5, 0, 4, 0.00,60.00,Thursday
12,16705882.04473454
60,495004.82616000006
281,7920077.218560001
1113,0.0
1212,0.0
1262,72000.0
1286,0.0
1312,0.0
1530,72000.0
2,5, 1, 5, 0, 5, 0.00,60.00,Thursday
12,19404606.12898626
60,495004.82616000006
281,7920077.218560001
1113,2698724.0842517205
1212,0.0
1262,3748740.422597752
1286,2117655.680013133
1312,0.0
1530,1631084.7425846187
2,5, 1, 5, 0, 6, 0.00,60.00,Thursday
12,21404001.38890993
60,990009.6523200001
281,7920077.218560001
1113,4203114.51801539
1212,0.0
1262,8311415.302438166
1286,6680278.918562159
1312,0.0
1530,1631136.3838760064
2,5, 1, 5, 0, 7, 0.00,60.00,Thursday
12,24023870.240763884
60,990009.6523200001
281,7920077.218560001
1113,6822983.369869347
1212,0.0
1262,91515623.2710988
1286,91443623.27109879
1312,0.0
1530,72000.0
2,5, 1, 5, 0, 8, 0.00,60.00,Thursday
12,20476689.545403887
60,2970028.95696
281,7920077.218560001
1113,6822983.369869347
1212,0.0
1262,108663947.23059617
1286,107032789.63902105
1312,0.0
1530,1631157.5915750924
2,5, 1, 5, 0, 9, 0.00,60.00,Thursday
12,33553243.982523885
60,8910086.87088
281,17820173.74176
1113,6822983.369869347
1212,0.0
1262,74740946.15575448
1286,73109584.01225865
1312,0.0
1530,1631362.143495838
2,5, 1, 5, 0,10, 0.00,60.00,Thursday
12,33553243.982523885
60,8910086.87088
281,17820173.74176
1113,6822983.369869347
1212,0.0
1262,59272598.033267245
1286,57641224.406443864
1312,0.0
1530,1631373.6268233806
2,5, 1, 5, 0,11, 0.00,60.00,Thursday
12,33553243.982523885
60,8910086.87088
281,17820173.74176
1113,6822983.369869347
1212,0.0
1262,48267021.09106843
1286,46635618.9142244
1312,0.0
1530,1631402.176844031
2,5, 1, 5, 0,12, 0.00,60.00,Thursday
12,33553243.982523885
60,8910086.87088
281,17820173.74176
1113,6822983.369869347
1212,0.0
1262,43448099.39668881
1286,40257218.122909874
1312,0.0
1530,3190881.273778932
2,5, 1, 5, 0,13, 0.00,60.00,Thursday
12,31573224.67788389
60,8910086.87088
281,15840154.437120002
1113,6822983.369869347
1212,0.0
1262,42122625.71674678
1286,40491275.109913334
1312,0.0
1530,1631350.6068334447
2,5, 1, 5, 0,14, 0.00,60.00,Thursday
12,33553243.982523885
60,8910086.87088
281,17820173.74176
1113,6822983.369869347
1212,0.0
1262,33377837.868717466
1286,31746375.874836914
1312,0.0
1530,1631461.9938805492
2,5, 1, 5, 0,15, 0.00,60.00,Thursday
12,33553243.982523885
60,8910086.87088
281,17820173.74176
1113,6822983.369869347
1212,0.0
1262,30652392.382118464
1286,29021036.894172672
1312,0.0
1530,1631355.4879457923
2,5, 1, 5, 0,16, 0.00,60.00,Thursday
12,33553243.982523885
60,8910086.87088
281,17820173.74176
1113,6822983.369869347
1212,0.0
1262,32497117.096034773
1286,30865800.015143313
1312,0.0
1530,1631317.0808914576
2,5, 1, 5, 0,17, 0.00,60.00,Thursday
12,39080443.98252389
60,8910086.87088
281,17820173.74176
1113,6822983.369869347
1212,0.0
1262,38851732.80592704
1286,35660954.06261736
1312,0.0
1530,3190778.74330968
2,5, 1, 5, 0,18, 0.00,60.00,Thursday
12,29963928.154683888
60,4950048.261600001
281,9900096.523200002
1113,6822983.369869347
1212,0.0
1262,53951522.16472734
1286,52320357.91663968
1312,0.0
1530,1631164.2480876595
2,5, 1, 5, 0,19, 0.00,60.00,Thursday
12,26003889.545403887
60,2970028.95696
281,7920077.218560001
1113,6822983.369869347
1212,0.0
1262,59768944.07192862
1286,59696944.07192862
1312,0.0
1530,72000.0
2,5, 1, 5, 0,20, 0.00,60.00,Thursday
12,26003889.545403887
60,2970028.95696
281,7920077.218560001
1113,6822983.369869347
1212,0.0
1262,64451688.30294974
1286,62820573.160385415
1312,0.0
1530,1631115.1425643293
2,5, 1, 5, 0,21, 0.00,60.00,Thursday
12,25013879.89308389
60,1980019.3046400002
281,7920077.218560001
1113,6822983.369869347
1212,0.0
1262,68171343.02333042
1286,66540144.47878068
1312,0.0
1530,1631198.544549747
2,5, 1, 5, 0,22, 0.00,60.00,Thursday
12,25013879.89308389
60,1980019.3046400002
281,7920077.218560001
1113,6822983.369869347
1212,0.0
1262,71019623.76709725
1286,69388598.50885904
1312,0.0
1530,1631025.2582382131
2,5, 1, 5, 0,23, 0.00,60.00,Thursday
12,17200886.87089454
60,990009.6523200001
281,7920077.218560001
1113,0.0
1212,0.0
1262,72000.0
1286,0.0
1312,0.0
1530,72000.0
2,5, 1, 5, 0,24, 0.00,60.00,Thursday
12,16705882.04473454
60,495004.82616000006
281,7920077.218560001
1113,0.0
1212,0.0
1262,1631014.378830466
1286,0.0
1312,0.0
1530,1631014.378830466
2,6, 1, 6, 0, 1, 0.00,60.00,Friday
12,16705882.04473454
60,495004.82616000006
281,7920077.218560001
1113,0.0
1212,0.0
1262,1631007.2309788992
1286,0.0
1312,0.0
1530,1631007.2309788992
2,6, 1, 6, 0, 2, 0.00,60.00,Friday
12,16705882.04473454
60,495004.82616000006
281,7920077.218560001
1113,0.0
1212,0.0
1262,72000.0
1286,0.0
1312,0.0
1530,72000.0
2,6, 1, 6, 0, 3, 0.00,60.00,Friday
12,19150615.89195466
60,495004.82616000006
281,7920077.218560001
1113,2444733.84722012
1212,0.0
1262,3043810.486160255
1286,1412699.142768274
1312,0.0
1530,1631111.3433919812
2,6, 1, 6, 0, 4, 0.00,60.00,Friday
12,20253552.24086632
60,495004.82616000006
281,7920077.218560001
1113,3547670.1961317793
1212,0.0
1262,4900700.476220388
1286,3269587.4221028886
1312,0.0
1530,1631113.0541174999
2,6, 1, 6, 0, 5, 0.00,60.00,Friday
12,20462861.701273255
60,495004.82616000006
281,7920077.218560001
1113,3756979.6565387133
1212,0.0
1262,7111008.372254945
1286,7039008.372254945
1312,0.0
1530,72000.0
2,6, 1, 6, 0, 6, 0.00,60.00,Friday
12,21404001.388909932
60,990009.6523200001
281,7920077.218560001
1113,4203114.51801539
1212,0.0
1262,9974934.959865618
1286,8343812.339079665
1312,0.0
1530,1631122.6207859549
2,6, 1, 6, 0, 7, 0.00,60.00,Friday
12,24023870.240763884
60,990009.6523200001
281,7920077.218560001
1113,6822983.369869347
1212,0.0
1262,97987882.10256465
1286,96356835.64889924
1312,0.0
1530,1631046.45366541
2,6, 1, 6, 0, 8, 0.00,60.00,Friday
12,20476689.545403887
60,2970028.95696
281,7920077.218560001
1113,6822983.369869347
1212,0.0
1262,113232922.6224739
1286,111601726.29273386
1312,0.0
1530,1631196.3297400274
2,6, 1, 6, 0, 9, 0.00,60.00,Friday
12,33553243.982523885
60,8910086.87088
281,17820173.74176
1113,6822983.369869347
1212,0.0
1262,78715326.47268204
1286,77083959.73959579
1312,0.0
1530,1631366.7330862652
2,6, 1, 6, 0,10, 0.00,60.00,Friday
12,33553243.982523885
60,8910086.87088
281,17820173.74176
1113,6822983.369869347
1212,0.0
1262,65026403.34046874
1286,63395027.41694
1312,0.0
1530,1631375.9235287376
2,6, 1, 6, 0,11, 0.00,60.00,Friday
12,33553243.982523885
60,8910086.87088
281,17820173.74176
1113,6822983.369869347
1212,0.0
1262,59219027.392501846
1286,57587690.586654216
1312,0.0
1530,1631336.8058476353
2,6, 1, 6, 0,12, 0.00,60.00,Friday
12,33553243.982523885
60,8910086.87088
281,17820173.74176
1113,6822983.369869347
1212,0.0
1262,59526196.03932121
1286,57894949.03681425
1312,0.0
1530,1631247.0025069583
2,6, 1, 6, 0,13, 0.00,60.00,Friday